 Set GAUSS_YDEF to "o2.chk".
 Set GAUSS_MDEF to "80GB".
 Set GAUSS_CDEF to "0-15".
 Entering Gaussian System, Link 0=g16
 Initial command:
 /public/apps/gaussian/G16_x86_64_AVX2-enabled_CPUs/g16/l1.exe "/scratch/bhammond/o2/Gau-1796364.inp" -scrdir="/scratch/bhammond/o2/"
 Default CPUs for threads: 0-15
 Default is to use a total of  16 processors:
                               16 via shared-memory
                                1 via Linda
 Entering Link 1 = /public/apps/gaussian/G16_x86_64_AVX2-enabled_CPUs/g16/l1.exe PID=   1796365.
  
 Copyright (c) 1988-2021, Gaussian, Inc.  All Rights Reserved.
  
 This is part of the Gaussian(R) 16 program.  It is based on
 the Gaussian(R) 09 system (copyright 2009, Gaussian, Inc.),
 the Gaussian(R) 03 system (copyright 2003, Gaussian, Inc.),
 the Gaussian(R) 98 system (copyright 1998, Gaussian, Inc.),
 the Gaussian(R) 94 system (copyright 1995, Gaussian, Inc.),
 the Gaussian 92(TM) system (copyright 1992, Gaussian, Inc.),
 the Gaussian 90(TM) system (copyright 1990, Gaussian, Inc.),
 the Gaussian 88(TM) system (copyright 1988, Gaussian, Inc.),
 the Gaussian 86(TM) system (copyright 1986, Carnegie Mellon
 University), and the Gaussian 82(TM) system (copyright 1983,
 Carnegie Mellon University). Gaussian is a federally registered
 trademark of Gaussian, Inc.
  
 This software contains proprietary and confidential information,
 including trade secrets, belonging to Gaussian, Inc.
  
 This software is provided under written license and may be
 used, copied, transmitted, or stored only in accord with that
 written license.
  
 The following legend is applicable only to US Government
 contracts under FAR:
  
                    RESTRICTED RIGHTS LEGEND
  
 Use, reproduction and disclosure by the US Government is
 subject to restrictions as set forth in subparagraphs (a)
 and (c) of the Commercial Computer Software - Restricted
 Rights clause in FAR 52.227-19.
  
 Gaussian, Inc.
 340 Quinnipiac St., Bldg. 40, Wallingford CT 06492
  
  
 ---------------------------------------------------------------
 Warning -- This program may not be used in any manner that
 competes with the business of Gaussian, Inc. or will provide
 assistance to any competitor of Gaussian, Inc.  The licensee
 of this program is prohibited from giving any competitor of
 Gaussian, Inc. access to this program.  By using this program,
 the user acknowledges that Gaussian, Inc. is engaged in the
 business of creating and licensing software in the field of
 computational chemistry and represents and warrants to the
 licensee that it is not a competitor of Gaussian, Inc. and that
 it will not use this program in any manner prohibited above.
 ---------------------------------------------------------------
  

 Cite this work as:
 Gaussian 16, Revision C.02,
 M. J. Frisch, G. W. Trucks, H. B. Schlegel, G. E. Scuseria, 
 M. A. Robb, J. R. Cheeseman, G. Scalmani, V. Barone, 
 G. A. Petersson, H. Nakatsuji, X. Li, M. Caricato, A. V. Marenich, 
 J. Bloino, B. G. Janesko, R. Gomperts, B. Mennucci, H. P. Hratchian, 
 J. V. Ortiz, A. F. Izmaylov, J. L. Sonnenberg, D. Williams-Young, 
 F. Ding, F. Lipparini, F. Egidi, J. Goings, B. Peng, A. Petrone, 
 T. Henderson, D. Ranasinghe, V. G. Zakrzewski, J. Gao, N. Rega, 
 G. Zheng, W. Liang, M. Hada, M. Ehara, K. Toyota, R. Fukuda, 
 J. Hasegawa, M. Ishida, T. Nakajima, Y. Honda, O. Kitao, H. Nakai, 
 T. Vreven, K. Throssell, J. A. Montgomery, Jr., J. E. Peralta, 
 F. Ogliaro, M. J. Bearpark, J. J. Heyd, E. N. Brothers, K. N. Kudin, 
 V. N. Staroverov, T. A. Keith, R. Kobayashi, J. Normand, 
 K. Raghavachari, A. P. Rendell, J. C. Burant, S. S. Iyengar, 
 J. Tomasi, M. Cossi, J. M. Millam, M. Klene, C. Adamo, R. Cammi, 
 J. W. Ochterski, R. L. Martin, K. Morokuma, O. Farkas, 
 J. B. Foresman, and D. J. Fox, Gaussian, Inc., Wallingford CT, 2019.
 
 ******************************************
 Gaussian 16:  ES64L-G16RevC.02  7-Dec-2021
                17-Mar-2023 
 ******************************************
 SetSPE:  set environment variable "OMP_PROC_BIND" = "true"
 SetSPE:  set environment variable "OMP_PLACES" = "{0},{1},{2},{3},{4},{5},{6},{7},{8},{9},{10},{11},{12},{13},{14},{15}"
 -------------------------------------------------------
 #P RHF cc-pVQZ punch=(NaturalOrbitals) pop=NO scf=tight
 -------------------------------------------------------
 1/30=1,38=1,172=1/1;
 2/12=2,17=6,18=5,40=1/2;
 3/5=16,6=2,11=1,25=1,30=1,116=1/1,2,3;
 4//1;
 5/5=2,32=2,38=5/2;
 6/7=2,8=2,9=2,10=2,22=-1,28=1,31=1/1;
 99/5=1,9=1,10=128/99;
 Leave Link    1 at Fri Mar 17 11:13:50 2023, MaxMem=           0 cpu:               0.1 elap:               0.1
 (Enter /public/apps/gaussian/G16_x86_64_AVX2-enabled_CPUs/g16/l101.exe)
 -------------------------------------------------------
 Gaussian Test o2 SINGLET DELTA Dunning cc-pVQZ DIOXYGEN
 -------------------------------------------------------
 Symbolic Z-matrix:
 Charge =  0 Multiplicity = 1
 O
 O                    1    R
       Variables:
  R                     1.22                     
 
 ITRead=  0  0
 MicOpt= -1 -1
 NAtoms=      2 NQM=        2 NQMF=       0 NMMI=      0 NMMIF=      0
                NMic=       0 NMicF=      0.
                    Isotopes and Nuclear Properties:
 (Nuclear quadrupole moments (NQMom) in fm**2, nuclear magnetic moments (NMagM)
  in nuclear magnetons)

  Atom         1           2
 IAtWgt=          16          16
 AtmWgt=  15.9949146  15.9949146
 NucSpn=           0           0
 AtZEff=  -0.0000000  -0.0000000
 NQMom=    0.0000000   0.0000000
 NMagM=    0.0000000   0.0000000
 AtZNuc=   8.0000000   8.0000000
 Leave Link  101 at Fri Mar 17 11:13:50 2023, MaxMem= 10737418240 cpu:               0.1 elap:               0.1
 (Enter /public/apps/gaussian/G16_x86_64_AVX2-enabled_CPUs/g16/l202.exe)
                          Input orientation:                          
 ---------------------------------------------------------------------
 Center     Atomic      Atomic             Coordinates (Angstroms)
 Number     Number       Type             X           Y           Z
 ---------------------------------------------------------------------
      1          8           0        0.000000    0.000000    0.000000
      2          8           0        0.000000    0.000000    1.220000
 ---------------------------------------------------------------------
 Stoichiometry    O2
 Framework group  D*H[C*(O.O)]
 Deg. of freedom     1
 Full point group                 D*H     NOp   8
 Largest Abelian subgroup         D2H     NOp   8
 Largest concise Abelian subgroup C2      NOp   2
                         Standard orientation:                         
 ---------------------------------------------------------------------
 Center     Atomic      Atomic             Coordinates (Angstroms)
 Number     Number       Type             X           Y           Z
 ---------------------------------------------------------------------
      1          8           0        0.000000    0.000000    0.610000
      2          8           0        0.000000    0.000000   -0.610000
 ---------------------------------------------------------------------
 Rotational constants (GHZ):           0.0000000          42.4566386          42.4566386
 Leave Link  202 at Fri Mar 17 11:13:50 2023, MaxMem= 10737418240 cpu:               0.1 elap:               0.0
 (Enter /public/apps/gaussian/G16_x86_64_AVX2-enabled_CPUs/g16/l301.exe)
 Standard basis: CC-pVQZ (5D, 7F)
 Ernie: Thresh=  0.10000D-02 Tol=  0.10000D-05 Strict=F.
 Ernie:  6 primitive shells out of 66 were deleted.
 There are    30 symmetry adapted cartesian basis functions of AG  symmetry.
 There are     8 symmetry adapted cartesian basis functions of B1G symmetry.
 There are    16 symmetry adapted cartesian basis functions of B2G symmetry.
 There are    16 symmetry adapted cartesian basis functions of B3G symmetry.
 There are     8 symmetry adapted cartesian basis functions of AU  symmetry.
 There are    30 symmetry adapted cartesian basis functions of B1U symmetry.
 There are    16 symmetry adapted cartesian basis functions of B2U symmetry.
 There are    16 symmetry adapted cartesian basis functions of B3U symmetry.
 There are    22 symmetry adapted basis functions of AG  symmetry.
 There are     7 symmetry adapted basis functions of B1G symmetry.
 There are    13 symmetry adapted basis functions of B2G symmetry.
 There are    13 symmetry adapted basis functions of B3G symmetry.
 There are     7 symmetry adapted basis functions of AU  symmetry.
 There are    22 symmetry adapted basis functions of B1U symmetry.
 There are    13 symmetry adapted basis functions of B2U symmetry.
 There are    13 symmetry adapted basis functions of B3U symmetry.
   110 basis functions,   178 primitive gaussians,   140 cartesian basis functions
     8 alpha electrons        8 beta electrons
       nuclear repulsion energy        27.7601159827 Hartrees.
 IExCor=    0 DFT=F Ex=HF Corr=None ExCW=0 ScaHFX=  1.000000
 ScaDFX=  1.000000  1.000000  1.000000  1.000000 ScalE2=  1.000000  1.000000
 IRadAn=      5 IRanWt=     -1 IRanGd=            0 ICorTp=0 IEmpDi=  4
 NAtoms=    2 NActive=    2 NUniq=    1 SFac= 4.00D+00 NAtFMM=   60 NAOKFM=F Big=F
 Integral buffers will be    131072 words long.
 Raffenetti 1 integral format.
 Two-electron integral symmetry is turned on.
 Leave Link  301 at Fri Mar 17 11:13:51 2023, MaxMem= 10737418240 cpu:               0.1 elap:               0.1
 (Enter /public/apps/gaussian/G16_x86_64_AVX2-enabled_CPUs/g16/l302.exe)
 NPDir=0 NMtPBC=     1 NCelOv=     1 NCel=       1 NClECP=     1 NCelD=      1
         NCelK=      1 NCelE2=     1 NClLst=     1 CellRange=     0.0.
 One-electron integrals computed using PRISM.
 One-electron integral symmetry used in STVInt
 NBasis=   110 RedAO= T EigKep=  8.34D-04  NBF=    22     7    13    13     7    22    13    13
 NBsUse=   110 1.00D-06 EigRej= -1.00D+00 NBFU=    22     7    13    13     7    22    13    13
 Leave Link  302 at Fri Mar 17 11:13:51 2023, MaxMem= 10737418240 cpu:               1.1 elap:               0.1
 (Enter /public/apps/gaussian/G16_x86_64_AVX2-enabled_CPUs/g16/l303.exe)
 DipDrv:  MaxL=1.
 Leave Link  303 at Fri Mar 17 11:13:51 2023, MaxMem= 10737418240 cpu:               0.1 elap:               0.0
 (Enter /public/apps/gaussian/G16_x86_64_AVX2-enabled_CPUs/g16/l401.exe)
 ExpMin= 1.75D-01 ExpMax= 6.14D+04 ExpMxC= 5.91D+02 IAcc=3 IRadAn=         5 AccDes= 0.00D+00
 Harris functional with IExCor=  205 and IRadAn=       5 diagonalized for initial guess.
 HarFok:  IExCor=  205 AccDes= 0.00D+00 IRadAn=         5 IDoV= 1 UseB2=F ITyADJ=14
 ICtDFT=  3500011 ScaDFX=  1.000000  1.000000  1.000000  1.000000
 FoFCou: FMM=F IPFlag=           0 FMFlag=      100000 FMFlg1=           0
         NFxFlg=           0 DoJE=T BraDBF=F KetDBF=T FulRan=T
         wScrn=  0.000000 ICntrl=       500 IOpCl=  0 I1Cent=   200000004 NGrid=           0
         NMat0=    1 NMatS0=      1 NMatT0=    0 NMatD0=    1 NMtDS0=    0 NMtDT0=    0
 Petite list used in FoFCou.
 Harris En= -149.616937210956    
 JPrj=0 DoOrth=F DoCkMO=F.
 Initial guess orbital symmetries:
       Occupied  (SGG) (SGU) (SGG) (SGU) (SGG) (PIU) (PIU) (PIG)
       Virtual   (PIG) (SGU) (SGU) (PIU) (PIU) (SGG) (SGG) (PIG)
                 (PIG) (DLTG) (DLTG) (SGU) (PIU) (PIU) (DLTU) (DLTU)
                 (SGU) (SGG) (PIG) (PIG) (PIU) (PIU) (SGG) (PIG)
                 (PIG) (DLTG) (DLTG) (PHIU) (PHIU) (PIU) (PIU)
                 (SGU) (SGG) (PHIG) (PHIG) (SGG) (DLTG) (DLTG)
                 (SGU) (DLTU) (DLTU) (PIG) (PIG) (SGU) (DLTU) (DLTU)
                 (PIU) (PIU) (SGG) (PIG) (PIG) (SGU) (DLTG) (DLTG)
                 (PHIU) (PHIU) (PIU) (PIU) (SGG) (?A) (?A) (?B)
                 (?B) (PHIG) (PHIG) (SGU) (PIU) (PIU) (PIG) (PIG)
                 (SGG) (DLTU) (DLTU) (PIG) (PIG) (PHIU) (PHIU)
                 (SGU) (DLTG) (DLTG) (PHIG) (PHIG) (DLTU) (DLTU)
                 (PIG) (PIG) (SGG) (PIU) (PIU) (SGU) (DLTG) (DLTG)
                 (PIU) (PIU) (DLTU) (DLTU) (SGG) (PIG) (PIG) (SGU)
                 (SGG) (SGU)
 Leave Link  401 at Fri Mar 17 11:13:52 2023, MaxMem= 10737418240 cpu:               1.9 elap:               0.3
 (Enter /public/apps/gaussian/G16_x86_64_AVX2-enabled_CPUs/g16/l502.exe)
 Keep R1 ints in memory in symmetry-blocked form, NReq=36761102.
 FoFCou: FMM=F IPFlag=           0 FMFlag=           0 FMFlg1=           0
         NFxFlg=           0 DoJE=F BraDBF=F KetDBF=F FulRan=T
         wScrn=  0.000000 ICntrl=       600 IOpCl=  0 I1Cent=           0 NGrid=           0
         NMat0=    1 NMatS0=   6105 NMatT0=    0 NMatD0=    1 NMtDS0=    0 NMtDT0=    0
 Petite list used in FoFCou.
 Closed shell SCF:
 Using DIIS extrapolation, IDIIS=  1040.
 NGot= 10737418240 LenX= 10734989851 LenY= 10734969810
 Requested convergence on RMS density matrix=1.00D-08 within 128 cycles.
 Requested convergence on MAX density matrix=1.00D-06.
 Requested convergence on             energy=1.00D-06.
 No special actions if energy rises.

 Cycle   1  Pass 1  IDiag  1:
 E= -149.561199894995    
 DIIS: error= 5.56D-02 at cycle   1 NSaved=   1.
 NSaved= 1 IEnMin= 1 EnMin= -149.561199894995     IErMin= 1 ErrMin= 5.56D-02
 ErrMax= 5.56D-02  0.00D+00 EMaxC= 1.00D-01 BMatC= 2.18D-01 BMatP= 2.18D-01
 IDIUse=3 WtCom= 4.44D-01 WtEn= 5.56D-01
 Coeff-Com:  0.100D+01
 Coeff-En:   0.100D+01
 Coeff:      0.100D+01
 Gap=     0.490 Goal=   None    Shift=    0.000
 GapD=    0.490 DampG=2.000 DampE=0.500 DampFc=1.0000 IDamp=-1.
 RMSDP=8.56D-04 MaxDP=2.26D-02              OVMax= 4.41D-02

 Cycle   2  Pass 1  IDiag  1:
 E= -149.597549957886     Delta-E=       -0.036350062891 Rises=F Damp=F
 DIIS: error= 6.30D-03 at cycle   2 NSaved=   2.
 NSaved= 2 IEnMin= 2 EnMin= -149.597549957886     IErMin= 2 ErrMin= 6.30D-03
 ErrMax= 6.30D-03  0.00D+00 EMaxC= 1.00D-01 BMatC= 1.66D-03 BMatP= 2.18D-01
 IDIUse=3 WtCom= 9.37D-01 WtEn= 6.30D-02
 Coeff-Com: -0.442D-01 0.104D+01
 Coeff-En:   0.000D+00 0.100D+01
 Coeff:     -0.414D-01 0.104D+01
 Gap=     0.491 Goal=   None    Shift=    0.000
 RMSDP=1.90D-04 MaxDP=4.17D-03 DE=-3.64D-02 OVMax= 8.29D-03

 Cycle   3  Pass 1  IDiag  1:
 E= -149.598511740980     Delta-E=       -0.000961783094 Rises=F Damp=F
 DIIS: error= 1.82D-03 at cycle   3 NSaved=   3.
 NSaved= 3 IEnMin= 3 EnMin= -149.598511740980     IErMin= 3 ErrMin= 1.82D-03
 ErrMax= 1.82D-03  0.00D+00 EMaxC= 1.00D-01 BMatC= 5.92D-05 BMatP= 1.66D-03
 IDIUse=3 WtCom= 9.82D-01 WtEn= 1.82D-02
 Coeff-Com: -0.769D-02 0.536D-01 0.954D+00
 Coeff-En:   0.000D+00 0.000D+00 0.100D+01
 Coeff:     -0.755D-02 0.526D-01 0.955D+00
 Gap=     0.493 Goal=   None    Shift=    0.000
 RMSDP=3.92D-05 MaxDP=1.02D-03 DE=-9.62D-04 OVMax= 2.84D-03

 Cycle   4  Pass 1  IDiag  1:
 E= -149.598566327005     Delta-E=       -0.000054586026 Rises=F Damp=F
 DIIS: error= 5.72D-04 at cycle   4 NSaved=   4.
 NSaved= 4 IEnMin= 4 EnMin= -149.598566327005     IErMin= 4 ErrMin= 5.72D-04
 ErrMax= 5.72D-04  0.00D+00 EMaxC= 1.00D-01 BMatC= 3.41D-06 BMatP= 5.92D-05
 IDIUse=3 WtCom= 9.94D-01 WtEn= 5.72D-03
 Coeff-Com:  0.250D-02-0.407D-01-0.231D+00 0.127D+01
 Coeff-En:   0.000D+00 0.000D+00 0.000D+00 0.100D+01
 Coeff:      0.249D-02-0.405D-01-0.230D+00 0.127D+01
 Gap=     0.495 Goal=   None    Shift=    0.000
 RMSDP=1.84D-05 MaxDP=4.94D-04 DE=-5.46D-05 OVMax= 1.34D-03

 Cycle   5  Pass 1  IDiag  1:
 E= -149.598572470392     Delta-E=       -0.000006143387 Rises=F Damp=F
 DIIS: error= 5.52D-05 at cycle   5 NSaved=   5.
 NSaved= 5 IEnMin= 5 EnMin= -149.598572470392     IErMin= 5 ErrMin= 5.52D-05
 ErrMax= 5.52D-05  0.00D+00 EMaxC= 1.00D-01 BMatC= 5.02D-08 BMatP= 3.41D-06
 IDIUse=1 WtCom= 1.00D+00 WtEn= 0.00D+00
 Coeff-Com: -0.343D-03 0.684D-02 0.310D-01-0.243D+00 0.121D+01
 Coeff:     -0.343D-03 0.684D-02 0.310D-01-0.243D+00 0.121D+01
 Gap=     0.495 Goal=   None    Shift=    0.000
 RMSDP=2.55D-06 MaxDP=8.19D-05 DE=-6.14D-06 OVMax= 1.33D-04

 Cycle   6  Pass 1  IDiag  1:
 E= -149.598572556126     Delta-E=       -0.000000085734 Rises=F Damp=F
 DIIS: error= 1.25D-05 at cycle   6 NSaved=   6.
 NSaved= 6 IEnMin= 6 EnMin= -149.598572556126     IErMin= 6 ErrMin= 1.25D-05
 ErrMax= 1.25D-05  0.00D+00 EMaxC= 1.00D-01 BMatC= 3.37D-09 BMatP= 5.02D-08
 IDIUse=1 WtCom= 1.00D+00 WtEn= 0.00D+00
 Coeff-Com: -0.144D-03 0.268D-02 0.143D-01-0.916D-01 0.227D+00 0.848D+00
 Coeff:     -0.144D-03 0.268D-02 0.143D-01-0.916D-01 0.227D+00 0.848D+00
 Gap=     0.495 Goal=   None    Shift=    0.000
 RMSDP=3.05D-07 MaxDP=5.47D-06 DE=-8.57D-08 OVMax= 2.31D-05

 Cycle   7  Pass 1  IDiag  1:
 E= -149.598572558916     Delta-E=       -0.000000002790 Rises=F Damp=F
 DIIS: error= 2.04D-06 at cycle   7 NSaved=   7.
 NSaved= 7 IEnMin= 7 EnMin= -149.598572558916     IErMin= 7 ErrMin= 2.04D-06
 ErrMax= 2.04D-06  0.00D+00 EMaxC= 1.00D-01 BMatC= 7.69D-11 BMatP= 3.37D-09
 IDIUse=1 WtCom= 1.00D+00 WtEn= 0.00D+00
 Coeff-Com:  0.182D-04-0.399D-03-0.169D-02 0.142D-01-0.660D-01-0.112D+00
 Coeff-Com:  0.117D+01
 Coeff:      0.182D-04-0.399D-03-0.169D-02 0.142D-01-0.660D-01-0.112D+00
 Coeff:      0.117D+01
 Gap=     0.495 Goal=   None    Shift=    0.000
 RMSDP=1.09D-07 MaxDP=3.57D-06 DE=-2.79D-09 OVMax= 5.38D-06

 Cycle   8  Pass 1  IDiag  1:
 E= -149.598572559044     Delta-E=       -0.000000000128 Rises=F Damp=F
 DIIS: error= 1.62D-07 at cycle   8 NSaved=   8.
 NSaved= 8 IEnMin= 8 EnMin= -149.598572559044     IErMin= 8 ErrMin= 1.62D-07
 ErrMax= 1.62D-07  0.00D+00 EMaxC= 1.00D-01 BMatC= 1.03D-12 BMatP= 7.69D-11
 IDIUse=1 WtCom= 1.00D+00 WtEn= 0.00D+00
 Coeff-Com: -0.202D-05 0.512D-04 0.198D-03-0.189D-02 0.113D-01 0.102D-01
 Coeff-Com: -0.242D+00 0.122D+01
 Coeff:     -0.202D-05 0.512D-04 0.198D-03-0.189D-02 0.113D-01 0.102D-01
 Coeff:     -0.242D+00 0.122D+01
 Gap=     0.495 Goal=   None    Shift=    0.000
 RMSDP=1.34D-08 MaxDP=3.05D-07 DE=-1.28D-10 OVMax= 6.09D-07

 Cycle   9  Pass 1  IDiag  1:
 E= -149.598572559045     Delta-E=       -0.000000000001 Rises=F Damp=F
 DIIS: error= 1.90D-08 at cycle   9 NSaved=   9.
 NSaved= 9 IEnMin= 9 EnMin= -149.598572559045     IErMin= 9 ErrMin= 1.90D-08
 ErrMax= 1.90D-08  0.00D+00 EMaxC= 1.00D-01 BMatC= 1.27D-14 BMatP= 1.03D-12
 IDIUse=1 WtCom= 1.00D+00 WtEn= 0.00D+00
 Coeff-Com:  0.335D-06-0.921D-05-0.274D-04 0.318D-03-0.211D-02-0.190D-02
 Coeff-Com:  0.503D-01-0.306D+00 0.126D+01
 Coeff:      0.335D-06-0.921D-05-0.274D-04 0.318D-03-0.211D-02-0.190D-02
 Coeff:      0.503D-01-0.306D+00 0.126D+01
 Gap=     0.495 Goal=   None    Shift=    0.000
 RMSDP=1.35D-09 MaxDP=2.40D-08 DE=-1.19D-12 OVMax= 6.96D-08

 SCF Done:  E(RHF) =  -149.598572559     A.U. after    9 cycles
            NFock=  9  Conv=0.14D-08     -V/T= 2.0018
 KE= 1.493262643329D+02 PE=-4.103280856380D+02 EE= 8.364313276337D+01
 Leave Link  502 at Fri Mar 17 11:13:53 2023, MaxMem= 10737418240 cpu:               7.7 elap:               0.8
 (Enter /public/apps/gaussian/G16_x86_64_AVX2-enabled_CPUs/g16/l601.exe)
 Copying SCF densities to generalized density rwf, IOpCl= 0 IROHF=0.

 **********************************************************************

            Population analysis using the SCF Density.

 **********************************************************************

 Orbital symmetries:
       Occupied  (SGG) (SGU) (SGG) (SGU) (PIU) (SGG) (PIU) (?A)
       Virtual   (?A) (SGU) (PIU) (PIU) (SGG) (?B) (SGU) (?A) (?A)
                 (SGU) (?B) (?B) (PIU) (PIU) (DLTU) (DLTU) (SGU)
                 (SGG) (PIG) (PIG) (PIU) (PIU) (?C) (PIG) (PIG)
                 (?C) (?C) (?D) (?D) (?D) (?D) (SGU) (SGG) (PHIG)
                 (PHIG) (?E) (?F) (?E) (?E) (?F) (?F) (PIG) (PIG)
                 (?F) (?F) (?F) (PIU) (PIU) (SGG) (PIG) (PIG) (SGU)
                 (?G) (?G) (?D) (?D) (?D) (?D) (?G) (?H) (?H) (?H)
                 (?H) (PHIG) (PHIG) (?H) (PIU) (PIU) (PIG) (PIG)
                 (?H) (?H) (?H) (PIG) (PIG) (PHIU) (PHIU) (?H)
                 (?H) (?H) (PHIG) (PHIG) (?H) (?H) (PIG) (PIG)
                 (?H) (PIU) (PIU) (SGU) (?H) (?H) (PIU) (PIU) (DLTU)
                 (DLTU) (SGG) (PIG) (PIG) (SGU) (SGG) (SGU)
 Unable to determine electronic state:  an orbital has unidentified symmetry.
     Natural Orbital Coefficients:
                           1         2         3         4         5
     Eigenvalues --     2.00000   2.00000   2.00000   2.00000   2.00000
   1 1   O  1S         -0.02440  -0.02982   0.42220   0.34687  -0.00000
   2        2S          0.11253   0.02379  -0.33897  -0.29452  -0.00000
   3        3S          0.20299   0.00132  -0.02337  -0.05909  -0.00000
   4        4S          0.41218   0.00478  -0.07674  -0.11975   0.00000
   5        5S          0.22635   0.00238  -0.03613  -0.12837   0.00000
   6        6PX         0.00000  -0.00000   0.00000   0.00000   0.11786
   7        6PY         0.00025   0.13729   0.00889  -0.00039   0.00000
   8        6PZ         0.04063   0.00051  -0.00589  -0.07841  -0.00000
   9        7PX         0.00000   0.00000  -0.00000   0.00000   0.21667
  10        7PY         0.00045   0.25110   0.01626  -0.00072   0.00000
  11        7PZ         0.07225   0.00072  -0.00761  -0.14337   0.00000
  12        8PX         0.00000  -0.00000   0.00000  -0.00000   0.28674
  13        8PY         0.00058   0.31028   0.01998  -0.00089   0.00000
  14        8PZ         0.08336   0.00082  -0.00875  -0.17355  -0.00000
  15        9PX         0.00000  -0.00000   0.00000  -0.00000   0.15189
  16        9PY         0.00037   0.13221   0.00760  -0.00044  -0.00000
  17        9PZ         0.02253   0.00020  -0.00226  -0.07055  -0.00000
  18       10D 0       -0.00161  -0.00002   0.00027   0.00234  -0.00000
  19       10D+1        0.00000   0.00000  -0.00000   0.00000  -0.00331
  20       10D-1       -0.00000  -0.00220  -0.00017   0.00000  -0.00000
  21       10D+2       -0.00073  -0.00001   0.00015   0.00027  -0.00000
  22       10D-2        0.00000  -0.00000  -0.00000   0.00000  -0.00000
  23       11D 0       -0.00535  -0.00005   0.00030   0.01095   0.00000
  24       11D+1       -0.00000  -0.00000   0.00000   0.00000  -0.01825
  25       11D-1       -0.00000  -0.01435  -0.00110   0.00003  -0.00000
  26       11D+2       -0.00038   0.00002  -0.00027   0.00005   0.00000
  27       11D-2       -0.00000   0.00000   0.00000  -0.00000   0.00000
  28       12D 0       -0.00777  -0.00009   0.00090   0.01025   0.00000
  29       12D+1       -0.00000   0.00000  -0.00000   0.00000  -0.03204
  30       12D-1       -0.00000  -0.01249  -0.00097   0.00003   0.00000
  31       12D+2       -0.00373  -0.00005   0.00066   0.00052  -0.00000
  32       12D-2        0.00000  -0.00000  -0.00000   0.00000  -0.00000
  33       13F 0        0.00051   0.00001  -0.00007  -0.00147   0.00000
  34       13F+1        0.00000   0.00000   0.00000   0.00000   0.00173
  35       13F-1        0.00000   0.00212   0.00016  -0.00000   0.00000
  36       13F+2        0.00030   0.00000  -0.00004  -0.00057  -0.00000
  37       13F-2        0.00000  -0.00000  -0.00000   0.00000  -0.00000
  38       13F+3        0.00000   0.00000   0.00000   0.00000   0.00083
  39       13F-3        0.00000   0.00101   0.00007  -0.00000  -0.00000
  40       14F 0        0.00088   0.00001   0.00006  -0.00286  -0.00000
  41       14F+1        0.00000  -0.00000  -0.00000  -0.00000   0.00751
  42       14F-1        0.00000   0.00641   0.00048  -0.00001  -0.00000
  43       14F+2        0.00061   0.00001  -0.00008  -0.00090   0.00000
  44       14F-2       -0.00000   0.00000   0.00000  -0.00000   0.00000
  45       14F+3       -0.00000   0.00000   0.00000  -0.00000   0.00310
  46       14F-3        0.00000   0.00304   0.00020  -0.00001   0.00000
  47       15G 0       -0.00021  -0.00000  -0.00000   0.00071   0.00000
  48       15G+1       -0.00000   0.00000   0.00000   0.00000  -0.00182
  49       15G-1       -0.00000  -0.00167  -0.00013   0.00000   0.00000
  50       15G+2       -0.00005  -0.00000   0.00000   0.00004  -0.00000
  51       15G-2        0.00000  -0.00000  -0.00000   0.00000  -0.00000
  52       15G+3       -0.00000  -0.00000   0.00000  -0.00000  -0.00028
  53       15G-3        0.00000  -0.00019  -0.00002   0.00000  -0.00000
  54       15G+4       -0.00002  -0.00000   0.00000   0.00001  -0.00000
  55       15G-4        0.00000  -0.00000  -0.00000   0.00000  -0.00000
  56 2   O  1S          0.00799   0.03272  -0.42437   0.33492   0.00000
  57        2S         -0.10155  -0.02638   0.34153  -0.28772   0.00000
  58        3S         -0.20674  -0.00208   0.02566  -0.06447   0.00000
  59        4S         -0.41837  -0.00637   0.08029  -0.12982  -0.00000
  60        5S         -0.22843  -0.00324   0.04325  -0.13398  -0.00000
  61        6PX         0.00000  -0.00000   0.00000   0.00000   0.11786
  62        6PY        -0.00011   0.12401   0.01052  -0.00019   0.00000
  63        6PZ         0.04005   0.00072  -0.01136   0.07935  -0.00000
  64        7PX         0.00000   0.00000   0.00000  -0.00000   0.21667
  65        7PY        -0.00020   0.22684   0.01924  -0.00036   0.00000
  66        7PZ         0.07121   0.00108  -0.01781   0.14514   0.00000
  67        8PX        -0.00000   0.00000  -0.00000   0.00000   0.28674
  68        8PY        -0.00026   0.27918   0.02380  -0.00043   0.00000
  69        8PZ         0.08226   0.00128  -0.02092   0.17558  -0.00000
  70        9PX        -0.00000  -0.00000  -0.00000   0.00000   0.15189
  71        9PY        -0.00024   0.10974   0.01037  -0.00010   0.00000
  72        9PZ         0.02250   0.00046  -0.00691   0.07108  -0.00000
  73       10D 0        0.00157   0.00003  -0.00045   0.00238   0.00000
  74       10D+1        0.00000  -0.00000   0.00000  -0.00000   0.00331
  75       10D-1        0.00000   0.00227   0.00016  -0.00001  -0.00000
  76       10D+2        0.00073   0.00001  -0.00017   0.00029   0.00000
  77       10D-2       -0.00000   0.00000   0.00000  -0.00000   0.00000
  78       11D 0        0.00510   0.00005  -0.00121   0.01108  -0.00000
  79       11D+1        0.00000   0.00000  -0.00000   0.00000   0.01825
  80       11D-1        0.00001   0.01471   0.00106  -0.00004   0.00000
  81       11D+2        0.00038  -0.00002   0.00024   0.00007  -0.00000
  82       11D-2        0.00000  -0.00000  -0.00000   0.00000  -0.00000
  83       12D 0        0.00755   0.00009  -0.00173   0.01044  -0.00000
  84       12D+1       -0.00000  -0.00000  -0.00000   0.00000   0.03204
  85       12D-1        0.00001   0.01289   0.00092  -0.00003   0.00000
  86       12D+2        0.00371   0.00005  -0.00071   0.00061   0.00000
  87       12D-2       -0.00000   0.00000   0.00000  -0.00000   0.00000
  88       13F 0        0.00048   0.00001  -0.00019   0.00148  -0.00000
  89       13F+1        0.00000   0.00000   0.00000   0.00000   0.00173
  90       13F-1        0.00000   0.00215   0.00016  -0.00000  -0.00000
  91       13F+2        0.00029   0.00000  -0.00008   0.00057  -0.00000
  92       13F-2        0.00000  -0.00000  -0.00000   0.00000  -0.00000
  93       13F+3        0.00000   0.00000   0.00000   0.00000   0.00083
  94       13F-3       -0.00000   0.00091   0.00008  -0.00000   0.00000
  95       14F 0        0.00076   0.00000  -0.00021   0.00288  -0.00000
  96       14F+1       -0.00000  -0.00000  -0.00000   0.00000   0.00751
  97       14F-1        0.00000   0.00643   0.00048  -0.00001   0.00000
  98       14F+2        0.00057   0.00001  -0.00016   0.00092   0.00000
  99       14F-2       -0.00000   0.00000   0.00000  -0.00000   0.00000
 100       14F+3       -0.00000   0.00000   0.00000  -0.00000   0.00310
 101       14F-3       -0.00000   0.00282   0.00023  -0.00000   0.00000
 102       15G 0        0.00019   0.00000  -0.00006   0.00072  -0.00000
 103       15G+1       -0.00000   0.00000  -0.00000   0.00000   0.00182
 104       15G-1        0.00000   0.00171   0.00012  -0.00000   0.00000
 105       15G+2        0.00004   0.00000  -0.00001   0.00004   0.00000
 106       15G-2       -0.00000   0.00000   0.00000  -0.00000   0.00000
 107       15G+3        0.00000   0.00000  -0.00000   0.00000   0.00028
 108       15G-3        0.00000   0.00021   0.00001  -0.00000  -0.00000
 109       15G+4        0.00002   0.00000  -0.00000   0.00001   0.00000
 110       15G-4        0.00000   0.00000   0.00000  -0.00000   0.00000
                           6         7         8         9        10
     Eigenvalues --     2.00000   2.00000   2.00000   0.00000   0.00000
   1 1   O  1S          0.23658   0.00647   0.06955   0.03661  -0.02064
   2        2S         -0.19681  -0.00543   0.03505   0.00918  -0.00296
   3        3S         -0.01931  -0.00078   0.18996  -0.03314   0.03809
   4        4S         -0.06870  -0.00215   0.35583  -0.12397  -0.05195
   5        5S          0.08456   0.00019   0.14928   0.21410   0.02506
   6        6PX         0.00000   0.00000  -0.00000   0.17523   0.56116
   7        6PY        -0.00191   0.14317   0.00015  -0.00069  -0.00233
   8        6PZ         0.10757   0.00103   0.00087   0.03171  -0.00975
   9        7PX        -0.00000  -0.00000   0.00000  -0.33343  -1.23163
  10        7PY        -0.00350   0.26161   0.00027   0.00396   0.00003
  11        7PZ         0.20353   0.00198  -0.00115   0.03582  -0.02191
  12        8PX         0.00000   0.00000  -0.00000   0.12724   1.22092
  13        8PY        -0.00446   0.33577   0.00034  -0.00895   0.00153
  14        8PZ         0.23902   0.00232   0.00727  -0.01933  -0.00028
  15        9PX         0.00000  -0.00000  -0.00000   0.12016  -0.46804
  16        9PY        -0.00303   0.24668   0.00020   0.01004  -0.00000
  17        9PZ         0.08284   0.00080   0.02310  -0.09779  -0.04640
  18       10D 0       -0.00404  -0.00004   0.00117  -0.03608   0.08534
  19       10D+1       -0.00000  -0.00000   0.00000  -0.08188  -0.04210
  20       10D-1       -0.00000   0.00089  -0.00000  -0.00978   0.00711
  21       10D+2       -0.00002   0.00000  -0.00047  -0.00070   0.00013
  22       10D-2       -0.00000   0.00000   0.00000   0.00000   0.00000
  23       11D 0       -0.02147  -0.00022   0.00856  -0.09285   0.09307
  24       11D+1        0.00000   0.00000  -0.00000  -0.02743  -0.25512
  25       11D-1       -0.00001   0.00469  -0.00001  -0.00634  -0.00613
  26       11D+2       -0.00088  -0.00001   0.00040  -0.00023   0.00003
  27       11D-2        0.00000  -0.00000  -0.00000  -0.00000  -0.00000
  28       12D 0       -0.01945  -0.00019   0.00738  -0.03084   0.09455
  29       12D+1       -0.00000  -0.00000   0.00000   0.05404   0.24167
  30       12D-1       -0.00002   0.00510  -0.00000  -0.00514   0.00255
  31       12D+2       -0.00135  -0.00000   0.00076  -0.00019  -0.00072
  32       12D-2       -0.00000   0.00000   0.00000   0.00000   0.00000
  33       13F 0        0.00263   0.00003  -0.00088  -0.18722   0.02800
  34       13F+1        0.00000  -0.00000   0.00000   0.43479   0.00099
  35       13F-1       -0.00000  -0.00034   0.00000   0.00092   0.00051
  36       13F+2        0.00077   0.00001   0.00002   0.00048   0.00028
  37       13F-2       -0.00000   0.00000   0.00000   0.00000   0.00000
  38       13F+3        0.00000  -0.00000   0.00000   0.19542  -0.01256
  39       13F-3       -0.00001   0.00112   0.00000   0.00012  -0.00004
  40       14F 0        0.00733   0.00008  -0.00492  -0.36518   0.14583
  41       14F+1        0.00000   0.00000  -0.00000  -0.27167  -0.24600
  42       14F-1       -0.00001  -0.00050   0.00000  -0.00263   0.00152
  43       14F+2        0.00209   0.00002  -0.00125   0.00095   0.00061
  44       14F-2        0.00000  -0.00000  -0.00000  -0.00000  -0.00000
  45       14F+3       -0.00000  -0.00000  -0.00000  -0.14974   0.01021
  46       14F-3       -0.00003   0.00236   0.00000   0.00015  -0.00013
  47       15G 0       -0.00168  -0.00002   0.00105   0.02641   0.00510
  48       15G+1       -0.00000  -0.00000   0.00000  -0.05614   0.12998
  49       15G-1       -0.00000   0.00056  -0.00000   0.00017   0.00056
  50       15G+2       -0.00022  -0.00000   0.00027   0.00046  -0.00021
  51       15G-2       -0.00000   0.00000   0.00000   0.00000   0.00000
  52       15G+3       -0.00000   0.00000  -0.00000   0.20830   0.01924
  53       15G-3       -0.00000   0.00023   0.00000   0.00001   0.00000
  54       15G+4       -0.00001  -0.00000  -0.00001   0.00001  -0.00000
  55       15G-4       -0.00000   0.00000  -0.00000   0.00000   0.00000
  56 2   O  1S          0.24945  -0.00087   0.07269  -0.06346   0.03553
  57        2S         -0.20870   0.00067   0.02954  -0.02085  -0.01157
  58        3S         -0.02341   0.00008   0.18328   0.13780  -0.08458
  59        4S         -0.07786   0.00010   0.34213  -0.25035  -0.06539
  60        5S          0.07964   0.00137   0.14180  -0.02139   0.06936
  61        6PX         0.00000   0.00000  -0.00000   0.18453   0.59285
  62        6PY         0.00136  -0.15472  -0.00001   0.01478  -0.00752
  63        6PZ        -0.10665  -0.00126   0.00046   0.04766  -0.01487
  64        7PX        -0.00000  -0.00000  -0.00000  -0.33497  -1.21815
  65        7PY         0.00249  -0.28273  -0.00002  -0.01158   0.00582
  66        7PZ        -0.20197  -0.00236   0.00352  -0.00383  -0.05208
  67        8PX        -0.00000  -0.00000   0.00000   0.13569   1.26138
  68        8PY         0.00321  -0.36182  -0.00003   0.01137  -0.00865
  69        8PZ        -0.23721  -0.00276  -0.00454  -0.09363  -0.00470
  70        9PX        -0.00000  -0.00000   0.00000   0.11209  -0.47233
  71        9PY         0.00252  -0.25738  -0.00007  -0.02045   0.01071
  72        9PZ        -0.08233  -0.00093  -0.02236   0.03149   0.02884
  73       10D 0       -0.00400  -0.00005   0.00122   0.05985  -0.06097
  74       10D+1        0.00000   0.00000  -0.00000   0.06400   0.01121
  75       10D-1       -0.00001   0.00070   0.00000   0.00029  -0.00394
  76       10D+2       -0.00001  -0.00000  -0.00044   0.00028   0.00012
  77       10D-2        0.00000  -0.00000  -0.00000   0.00000   0.00000
  78       11D 0       -0.02137  -0.00025   0.00873   0.04073  -0.03846
  79       11D+1       -0.00000  -0.00000   0.00000   0.01701   0.23400
  80       11D-1       -0.00008   0.00340   0.00001   0.00576   0.00480
  81       11D+2       -0.00088  -0.00001   0.00041  -0.00036  -0.00015
  82       11D-2       -0.00000   0.00000   0.00000  -0.00000   0.00000
  83       12D 0       -0.01928  -0.00023   0.00763   0.01063  -0.02643
  84       12D+1       -0.00000   0.00000   0.00000  -0.03825  -0.21617
  85       12D-1       -0.00008   0.00397   0.00001   0.00148  -0.00348
  86       12D+2       -0.00127  -0.00002   0.00089  -0.00029  -0.00031
  87       12D-2        0.00000  -0.00000  -0.00000  -0.00000  -0.00000
  88       13F 0       -0.00262  -0.00003   0.00090   0.29327  -0.04409
  89       13F+1        0.00000  -0.00000  -0.00000   0.43477  -0.00306
  90       13F-1       -0.00001   0.00015   0.00000   0.00014   0.00118
  91       13F+2       -0.00076  -0.00001  -0.00001  -0.00110  -0.00047
  92       13F-2       -0.00000   0.00000   0.00000   0.00000   0.00000
  93       13F+3        0.00000  -0.00000   0.00000   0.19587  -0.01188
  94       13F-3        0.00001  -0.00121  -0.00000  -0.00005  -0.00000
  95       14F 0       -0.00731  -0.00008   0.00495  -0.01471   0.10061
  96       14F+1       -0.00000   0.00000   0.00000  -0.26286  -0.22914
  97       14F-1       -0.00002  -0.00007   0.00000   0.00493  -0.00387
  98       14F+2       -0.00207  -0.00002   0.00127  -0.00026  -0.00065
  99       14F-2        0.00000  -0.00000  -0.00000  -0.00000  -0.00000
 100       14F+3       -0.00000  -0.00000  -0.00000  -0.14962   0.01043
 101       14F-3        0.00002  -0.00262   0.00000  -0.00024   0.00002
 102       15G 0       -0.00167  -0.00002   0.00106   0.10346  -0.02179
 103       15G+1       -0.00000   0.00000   0.00000   0.06536  -0.11533
 104       15G-1       -0.00001   0.00041   0.00000   0.00282  -0.00182
 105       15G+2       -0.00022  -0.00000   0.00027  -0.00079  -0.00017
 106       15G-2        0.00000  -0.00000  -0.00000  -0.00000  -0.00000
 107       15G+3        0.00000  -0.00000   0.00000  -0.20850  -0.01958
 108       15G-3       -0.00000   0.00021   0.00000   0.00001  -0.00001
 109       15G+4       -0.00001  -0.00000  -0.00001  -0.00001   0.00001
 110       15G-4       -0.00000   0.00000   0.00000  -0.00000  -0.00000
                          11        12        13        14        15
     Eigenvalues --     0.00000   0.00000   0.00000   0.00000   0.00000
   1 1   O  1S         -0.05547   0.01872   0.09818  -0.09629  -0.22770
   2        2S          0.02959   0.10222   0.13903  -0.09503  -0.18041
   3        3S          0.18305   0.11915   0.01445   0.14051   0.20728
   4        4S         -0.09338   0.25406   0.34813  -0.20638  -0.56823
   5        5S         -0.05157  -0.35840  -0.15118   0.19529  -0.13821
   6        6PX        -0.23034  -0.18819   0.29137  -0.01284   0.03957
   7        6PY        -0.00854  -0.00310   0.05684   0.00085   0.01051
   8        6PZ        -0.07946  -0.08792   0.04049   0.04317  -0.15334
   9        7PX         0.58207  -0.26693  -0.17284   0.05280  -0.08166
  10        7PY         0.00906   0.01309  -0.12432  -0.00944  -0.02119
  11        7PZ        -0.04593  -0.06181  -0.06617   0.11902   0.13179
  12        8PX        -0.44894   0.20169  -0.15648   0.03060  -0.13140
  13        8PY        -0.01387  -0.02288   0.05284  -0.00010  -0.01363
  14        8PZ         0.04488   0.05513   0.00250   0.11174  -0.00661
  15        9PX         0.23906  -0.12665   0.22691  -0.05698   0.19717
  16        9PY         0.02262   0.03758  -0.29210  -0.00670  -0.12684
  17        9PZ        -0.07787   0.14467   0.01214  -0.21150   0.06341
  18       10D 0        0.14869  -0.06995  -0.08299   0.04987   0.29432
  19       10D+1       -0.19124   0.12390   0.07837  -0.11398  -0.03250
  20       10D-1        0.00556  -0.01509  -0.00189   0.00640   0.00538
  21       10D+2       -0.00054  -0.00040  -0.00040   0.00015  -0.00006
  22       10D-2       -0.00000   0.00000   0.00000  -0.00000   0.00000
  23       11D 0        0.10469  -0.12282  -0.09974   0.03265   0.18592
  24       11D+1        0.00017   0.44192  -0.06322   0.53531   0.33396
  25       11D-1       -0.03825  -0.04383   0.55201   0.03394   0.18869
  26       11D+2        0.00012   0.00030   0.00099   0.00055  -0.00079
  27       11D-2        0.00000  -0.00000  -0.00000   0.00000  -0.00000
  28       12D 0        0.11220  -0.19011  -0.07722   0.40067  -0.09927
  29       12D+1       -0.12850  -0.30174   0.15676  -0.25989  -0.07833
  30       12D-1       -0.00003  -0.00869   0.00621   0.00330   0.02187
  31       12D+2       -0.00183   0.00033   0.00022   0.00288  -0.00124
  32       12D-2       -0.00000   0.00000   0.00000  -0.00000  -0.00000
  33       13F 0       -0.16188  -0.15999  -0.12842  -0.13813   0.28009
  34       13F+1        0.10593  -0.09340  -0.28695   0.00382   0.08268
  35       13F-1        0.00347   0.00501  -0.06645  -0.01092  -0.01812
  36       13F+2        0.00118  -0.00023  -0.00110   0.00094   0.00221
  37       13F-2       -0.00000  -0.00000  -0.00000  -0.00000  -0.00000
  38       13F+3        0.03336  -0.06660  -0.01770   0.25028  -0.11793
  39       13F-3        0.00015   0.00045  -0.00296  -0.00014  -0.00142
  40       14F 0        0.22307   0.12913   0.00634  -0.07559   0.02070
  41       14F+1       -0.15452   0.02632   0.34433  -0.03348   0.04739
  42       14F-1       -0.00146  -0.00999   0.07497   0.01073   0.01479
  43       14F+2        0.00040  -0.00328  -0.00234   0.00226   0.00087
  44       14F-2        0.00000  -0.00000  -0.00000   0.00000   0.00000
  45       14F+3       -0.04698   0.07904  -0.12439  -0.27174  -0.05294
  46       14F-3       -0.00008   0.00044  -0.00302  -0.00030  -0.00162
  47       15G 0        0.05679   0.03064   0.00695  -0.00581   0.02269
  48       15G+1        0.14745  -0.12226   0.07105   0.18397  -0.05850
  49       15G-1        0.00271   0.00259  -0.04566  -0.00075  -0.01721
  50       15G+2       -0.00043  -0.00013   0.00049   0.00112  -0.00117
  51       15G-2       -0.00000  -0.00000   0.00000  -0.00000  -0.00000
  52       15G+3        0.06737   0.03246   0.02450  -0.09802  -0.03802
  53       15G-3        0.00002   0.00001  -0.00023  -0.00001  -0.00005
  54       15G+4        0.00000  -0.00000  -0.00001  -0.00007   0.00007
  55       15G-4       -0.00000  -0.00000   0.00000  -0.00000  -0.00000
  56 2   O  1S          0.07999   0.03644  -0.03780  -0.11484   0.13572
  57        2S          0.01879   0.07637  -0.01883  -0.11979   0.19680
  58        3S         -0.10741   0.01833   0.01468   0.07620   0.11707
  59        4S         -0.06500   0.40970   0.18284  -0.51121   0.07514
  60        5S          0.10198  -0.14224  -0.18366   0.17964   0.07595
  61        6PX        -0.34849  -0.05664   0.24076  -0.04150   0.02321
  62        6PY         0.00798   0.04344  -0.26544  -0.01501  -0.12194
  63        6PZ         0.04355   0.01437   0.00477   0.12709  -0.01521
  64        7PX         0.51805  -0.18285  -0.19305   0.05177  -0.07780
  65        7PY        -0.00329  -0.02250   0.08361  -0.00686   0.05845
  66        7PZ        -0.11460   0.01277   0.03197   0.12660  -0.16678
  67        8PX        -0.60097   0.37616  -0.22631  -0.00025  -0.13080
  68        8PY        -0.00579   0.02186  -0.06453  -0.00707  -0.03301
  69        8PZ        -0.03262   0.05861   0.04861  -0.01477  -0.09282
  70        9PX         0.22950  -0.09750   0.24388  -0.01836   0.24071
  71        9PY        -0.00983  -0.06434   0.45045   0.04397   0.19274
  72        9PZ         0.06837  -0.02782  -0.12828  -0.09387   0.39833
  73       10D 0       -0.19561  -0.14013  -0.07419   0.06227   0.12132
  74       10D+1        0.27480  -0.19014  -0.03084   0.17535   0.07107
  75       10D-1       -0.01432  -0.00875   0.18635   0.00085   0.06823
  76       10D+2       -0.00069  -0.00192   0.00014   0.00305  -0.00396
  77       10D-2        0.00000  -0.00000  -0.00000  -0.00000  -0.00000
  78       11D 0       -0.20293  -0.24223  -0.15490   0.11767   0.05494
  79       11D+1        0.05555  -0.48023   0.09211  -0.49223  -0.30574
  80       11D-1        0.03260   0.03946  -0.41377  -0.02707  -0.12629
  81       11D+2        0.00005   0.00088   0.00035  -0.00032   0.00102
  82       11D-2       -0.00000   0.00000   0.00000   0.00000   0.00000
  83       12D 0       -0.09868  -0.09660  -0.20495  -0.16935   0.50102
  84       12D+1        0.07864   0.30639  -0.17985   0.19599   0.03421
  85       12D-1       -0.01096  -0.00956   0.27905   0.00667   0.13026
  86       12D+2       -0.00038   0.00112   0.00264   0.00011  -0.00304
  87       12D-2        0.00000  -0.00000  -0.00000   0.00000  -0.00000
  88       13F 0        0.12707   0.13747   0.08723  -0.15622  -0.01231
  89       13F+1        0.12708  -0.12391  -0.27954  -0.00011   0.07708
  90       13F-1        0.00328   0.00085  -0.03808  -0.00961   0.00441
  91       13F+2       -0.00143   0.00147   0.00151  -0.00206  -0.00210
  92       13F-2       -0.00000   0.00000   0.00000  -0.00000  -0.00000
  93       13F+3        0.03183  -0.06576  -0.01867   0.24849  -0.11901
  94       13F-3       -0.00011  -0.00015   0.00212   0.00020   0.00074
  95       14F 0        0.35511   0.15331  -0.03409  -0.06953   0.25660
  96       14F+1       -0.21011   0.07780   0.31878  -0.04655   0.04481
  97       14F-1       -0.00475   0.00050   0.16075   0.01330   0.07150
  98       14F+2       -0.00104   0.00170   0.00312   0.00156  -0.00571
  99       14F-2        0.00000  -0.00000  -0.00000   0.00000   0.00000
 100       14F+3       -0.04761   0.07974  -0.12469  -0.27224  -0.05323
 101       14F-3       -0.00049  -0.00089   0.00557   0.00038   0.00195
 102       15G 0       -0.00591  -0.01827  -0.02847   0.00324   0.05561
 103       15G+1       -0.17966   0.13882  -0.09178  -0.22195   0.03379
 104       15G-1       -0.00078   0.00401   0.01424  -0.00058   0.00897
 105       15G+2       -0.00001   0.00127   0.00040  -0.00113   0.00034
 106       15G-2        0.00000   0.00000  -0.00000   0.00000   0.00000
 107       15G+3       -0.06662  -0.03272  -0.02404   0.09901   0.03870
 108       15G-3        0.00001   0.00005  -0.00038  -0.00002  -0.00020
 109       15G+4        0.00001   0.00000   0.00003   0.00001  -0.00009
 110       15G-4        0.00000  -0.00000  -0.00000   0.00000   0.00000
                          16        17        18        19        20
     Eigenvalues --     0.00000   0.00000   0.00000   0.00000   0.00000
   1 1   O  1S         -0.11744  -0.20721   0.08653  -0.34581   0.32542
   2        2S          0.03054  -0.31600   0.12772  -0.41536   0.40066
   3        3S          0.38172   0.00879  -0.04813  -0.16168   0.20968
   4        4S          0.12057  -0.86083   0.42515   0.04720  -0.15398
   5        5S         -0.23904   0.12355  -0.00549  -0.14042   0.08912
   6        6PX        -0.13199   0.05747  -0.07045   0.00418   0.03058
   7        6PY        -0.00242  -0.10698  -0.27856  -0.16151  -0.26514
   8        6PZ        -0.02545  -0.20639   0.13298   0.40009  -0.44331
   9        7PX        -0.12603  -0.09429   0.06132  -0.01477  -0.01911
  10        7PY         0.00679   0.16595   0.33672   0.07287   0.16490
  11        7PZ         0.13422   0.06557  -0.03382  -0.14486   0.17347
  12        8PX         0.04351  -0.17758   0.08289  -0.02394  -0.02830
  13        8PY        -0.01883  -0.25870  -0.37086   0.44902   0.42497
  14        8PZ         0.06965   0.25278  -0.19461  -0.21566   0.26077
  15        9PX         0.07053   0.11716  -0.06229   0.03241   0.00945
  16        9PY        -0.00902   0.11458   0.50391   0.26400   0.31675
  17        9PZ        -0.28143   0.35331  -0.17420   0.20358  -0.18812
  18       10D 0        0.26932  -0.20596   0.10679   0.09726  -0.06976
  19       10D+1        0.34941   0.21611  -0.11229   0.02277  -0.00892
  20       10D-1       -0.00277   0.07876   0.10997   0.01062   0.01909
  21       10D+2        0.00059   0.00159  -0.00128  -0.00384   0.00422
  22       10D-2        0.00000   0.00000  -0.00000  -0.00000  -0.00000
  23       11D 0        0.01294  -0.02782   0.01340  -0.08670   0.07674
  24       11D+1       -0.44312  -0.16199   0.08167   0.00900  -0.00642
  25       11D-1        0.04033   0.02084  -0.23435  -0.13864  -0.15182
  26       11D+2        0.00172  -0.00172   0.00044  -0.00184   0.00255
  27       11D-2       -0.00000  -0.00000   0.00000   0.00000   0.00000
  28       12D 0        0.13675   0.09337  -0.07176  -0.20687   0.17327
  29       12D+1       -0.02209  -0.26063   0.08904  -0.05969   0.06035
  30       12D-1        0.00190   0.04445  -0.12071  -0.37091  -0.43915
  31       12D+2        0.00603  -0.00037  -0.00037   0.00249  -0.00198
  32       12D-2        0.00000   0.00000  -0.00000   0.00000   0.00000
  33       13F 0        0.12520  -0.17066   0.07916  -0.31283   0.28832
  34       13F+1        0.02618   0.03476  -0.01312  -0.05900   0.02338
  35       13F-1       -0.00921  -0.09151  -0.08175   0.08630   0.12453
  36       13F+2       -0.00104   0.00565  -0.00293  -0.00170   0.00243
  37       13F-2        0.00000   0.00000  -0.00000   0.00000   0.00000
  38       13F+3        0.11201  -0.10249   0.06490   0.01804  -0.01856
  39       13F-3       -0.00009  -0.00188  -0.00042   0.00200   0.00139
  40       14F 0       -0.16704   0.22914  -0.12277   0.25241  -0.22532
  41       14F+1        0.10108  -0.04235  -0.01678   0.05118  -0.00742
  42       14F-1        0.00428   0.08391   0.19225   0.40013   0.43200
  43       14F+2       -0.00186   0.00156  -0.00004   0.00512  -0.00597
  44       14F-2       -0.00000  -0.00000  -0.00000  -0.00000  -0.00000
  45       14F+3       -0.10397   0.05192   0.00414   0.05372  -0.05816
  46       14F-3       -0.00014  -0.00422  -0.00319   0.00306   0.00314
  47       15G 0       -0.02286   0.03526  -0.01328  -0.02493   0.04407
  48       15G+1        0.00241   0.06584  -0.04090   0.09342  -0.07490
  49       15G-1       -0.00283   0.01515   0.03359   0.02910   0.01994
  50       15G+2        0.00161  -0.00075   0.00006  -0.00106   0.00099
  51       15G-2        0.00000   0.00000   0.00000   0.00000   0.00000
  52       15G+3       -0.06899  -0.01077   0.00400   0.01742  -0.01996
  53       15G-3       -0.00002   0.00057   0.00109   0.00133   0.00146
  54       15G+4       -0.00007  -0.00003   0.00004   0.00017  -0.00018
  55       15G-4        0.00000   0.00000   0.00000   0.00000   0.00000
  56 2   O  1S         -0.25152   0.32561  -0.15804  -0.08262   0.13836
  57        2S         -0.15386   0.35323  -0.18665  -0.10663   0.18147
  58        3S          0.30776  -0.03176  -0.01250  -0.07616   0.09376
  59        4S         -0.22958   0.06936  -0.04542   0.30567  -0.23603
  60        5S         -0.25352   0.58253  -0.29933  -0.05209   0.07967
  61        6PX        -0.10849   0.09831  -0.07680  -0.00065   0.03588
  62        6PY        -0.01207   0.07505   0.44999  -0.13374  -0.07980
  63        6PZ        -0.08189   0.24042  -0.08688   0.30509  -0.29768
  64        7PX        -0.13596  -0.06343   0.05201  -0.00771  -0.01529
  65        7PY         0.00135  -0.17148  -0.50219  -0.11065  -0.14928
  66        7PZ         0.02527   0.13903  -0.11663  -0.34334   0.36679
  67        8PX         0.03695  -0.13051   0.07371  -0.05456   0.00774
  68        8PY         0.00046  -0.17095  -0.42203   0.29147   0.19793
  69        8PZ         0.03541  -0.03765  -0.00901   0.07871  -0.09799
  70        9PX        -0.00361   0.05903  -0.04281   0.03498   0.03385
  71        9PY         0.02662   0.43513   0.54930  -0.82500  -0.77191
  72        9PZ        -0.01885   0.30348  -0.15257   0.12817  -0.02817
  73       10D 0        0.18970  -0.05453   0.05012   0.35438  -0.35011
  74       10D+1       -0.42268  -0.27298   0.12704  -0.01208   0.00471
  75       10D-1        0.00899  -0.12680  -0.28950  -0.19705  -0.19421
  76       10D+2        0.00010  -0.00077   0.00046   0.00354  -0.00450
  77       10D-2        0.00000  -0.00000   0.00000  -0.00000  -0.00000
  78       11D 0       -0.07609   0.16757  -0.08451  -0.10124   0.09557
  79       11D+1        0.41675   0.15331  -0.08502   0.00319  -0.00418
  80       11D-1       -0.02790  -0.05154   0.00861  -0.15320  -0.18269
  81       11D+2        0.00155  -0.00225   0.00171   0.00420  -0.00518
  82       11D-2        0.00000   0.00000  -0.00000   0.00000   0.00000
  83       12D 0       -0.24936   0.36626  -0.15662  -0.02803   0.08051
  84       12D+1        0.04523   0.22219  -0.06769   0.02312  -0.02430
  85       12D-1        0.02274  -0.02411  -0.34537  -0.58563  -0.62444
  86       12D+2        0.00447  -0.01491   0.00879   0.00941  -0.01201
  87       12D-2       -0.00000  -0.00000   0.00000   0.00000   0.00000
  88       13F 0       -0.10204  -0.02953  -0.00338  -0.11780   0.12177
  89       13F+1        0.02680   0.02416  -0.00979  -0.05824   0.02092
  90       13F-1       -0.00547  -0.10930  -0.24214  -0.21366  -0.24134
  91       13F+2        0.00171  -0.00478   0.00226   0.00074  -0.00105
  92       13F-2        0.00000   0.00000  -0.00000   0.00000   0.00000
  93       13F+3        0.11404  -0.10055   0.06419   0.01751  -0.01820
  94       13F-3        0.00024  -0.00170  -0.00537  -0.00357  -0.00453
  95       14F 0        0.01716   0.17144  -0.06102   0.17642  -0.15598
  96       14F+1        0.09178  -0.06476  -0.00271   0.03323   0.01183
  97       14F-1        0.02218   0.07452  -0.07372  -0.30007  -0.33505
  98       14F+2        0.00280  -0.00229   0.00041   0.00223  -0.00242
  99       14F-2       -0.00000  -0.00000   0.00000  -0.00000  -0.00000
 100       14F+3       -0.10256   0.05467   0.00290   0.05399  -0.05829
 101       14F-3        0.00027  -0.00149  -0.00764   0.00149  -0.00093
 102       15G 0        0.04156  -0.00882  -0.00020  -0.11983   0.10361
 103       15G+1        0.04107  -0.03851   0.03325  -0.10338   0.08032
 104       15G-1        0.00292   0.01356  -0.00771  -0.00632  -0.00803
 105       15G+2       -0.00031  -0.00016   0.00015   0.00020  -0.00028
 106       15G-2       -0.00000  -0.00000  -0.00000   0.00000  -0.00000
 107       15G+3        0.06822   0.01032  -0.00388  -0.01707   0.01971
 108       15G-3       -0.00001  -0.00038  -0.00046   0.00082   0.00044
 109       15G+4        0.00005  -0.00016   0.00007  -0.00018   0.00015
 110       15G-4       -0.00000  -0.00000  -0.00000   0.00000   0.00000
                          21        22        23        24        25
     Eigenvalues --     0.00000   0.00000   0.00000   0.00000   0.00000
   1 1   O  1S          0.15406   0.73706   0.18846   0.39852   0.14953
   2        2S          0.33032   0.80709   0.16284   0.51928   0.19601
   3        3S          0.66669  -0.20505  -0.17579   0.03113   0.05565
   4        4S         -0.21403   0.94793   0.41322  -0.11630  -0.00654
   5        5S         -1.23936   0.53103   0.11477   0.81302   0.06516
   6        6PX         0.01751  -0.01690   0.01852   0.03515   0.02248
   7        6PY        -0.04787   0.19573  -0.48831  -0.30482   1.03781
   8        6PZ        -0.21854  -0.31884  -0.22512   0.60005   0.10235
   9        7PX         0.00181  -0.02228  -0.03122  -0.04117  -0.02159
  10        7PY        -0.01618   0.00947  -0.02254   0.20584  -1.38292
  11        7PZ        -0.37092   0.12137   0.15305  -0.41484  -0.11406
  12        8PX         0.07140  -0.02409  -0.04174  -0.02803  -0.02754
  13        8PY         0.14034  -0.47911   1.17972   0.12013   1.53375
  14        8PZ         0.98099  -0.35181  -0.09361  -0.38449   0.00507
  15        9PX        -0.00895   0.07487   0.03346   0.09419   0.02058
  16        9PY        -0.01018   0.17497  -0.71617  -0.24380  -0.58878
  17        9PZ         0.63269  -0.42899  -0.09352  -0.62442  -0.13841
  18       10D 0       -0.12615   0.23112   0.19398  -0.30960  -0.00958
  19       10D+1       -0.09721   0.05314   0.05014   0.06593   0.02495
  20       10D-1       -0.01145   0.02236  -0.01891  -0.00000   0.11215
  21       10D+2        0.00000  -0.00075   0.00176  -0.00818  -0.00141
  22       10D-2       -0.00000   0.00000   0.00000   0.00000   0.00000
  23       11D 0       -0.11058   0.10956   0.03323  -0.00331  -0.01598
  24       11D+1        0.03158   0.06485  -0.00387   0.05704  -0.00049
  25       11D-1       -0.04374   0.10694  -0.21562  -0.00636  -0.26626
  26       11D+2        0.00458   0.00605   0.00653  -0.02670  -0.00580
  27       11D-2        0.00000   0.00000  -0.00000  -0.00000  -0.00000
  28       12D 0       -0.39093  -0.14960  -0.23817   1.00176   0.19252
  29       12D+1        0.11186  -0.15395  -0.03435  -0.21945  -0.03244
  30       12D-1       -0.08865   0.21021  -0.30917   0.03199  -0.30385
  31       12D+2        0.01350  -0.01277  -0.00416  -0.01235  -0.00037
  32       12D-2       -0.00000  -0.00000   0.00000   0.00000  -0.00000
  33       13F 0        0.17062   0.11088  -0.16511   0.58264   0.07032
  34       13F+1       -0.06246  -0.09490  -0.03243  -0.05946  -0.00868
  35       13F-1        0.06181  -0.22146   0.45502   0.04357   0.22415
  36       13F+2        0.00393  -0.00037  -0.00018  -0.00066   0.00006
  37       13F-2        0.00000  -0.00000   0.00000   0.00000  -0.00000
  38       13F+3        0.08507   0.06155  -0.03897   0.12416   0.00766
  39       13F-3        0.00136  -0.00329   0.00398  -0.00096   0.00436
  40       14F 0        0.13445  -0.13168   0.19866  -0.92289  -0.15446
  41       14F+1        0.00632   0.02246   0.04262   0.04121   0.02940
  42       14F-1        0.00496  -0.04122   0.08988  -0.00388   0.44256
  43       14F+2       -0.01440  -0.00977  -0.00418   0.00671  -0.00080
  44       14F-2       -0.00000   0.00000  -0.00000  -0.00000   0.00000
  45       14F+3        0.13459   0.01576  -0.02818   0.01486  -0.01365
  46       14F-3        0.00285  -0.00708   0.01143   0.00164  -0.01502
  47       15G 0        0.04732  -0.07646  -0.07325   0.17178   0.04564
  48       15G+1       -0.00458  -0.06932  -0.00898   0.01102   0.02584
  49       15G-1       -0.01450   0.03090  -0.05556  -0.01226   0.10831
  50       15G+2        0.00273  -0.00137  -0.00112   0.00003   0.00012
  51       15G-2        0.00000  -0.00000   0.00000   0.00000  -0.00000
  52       15G+3       -0.02722  -0.01412   0.00937  -0.03698  -0.00359
  53       15G-3       -0.00033   0.00152  -0.00323  -0.00025  -0.00264
  54       15G+4       -0.00017  -0.00031  -0.00026   0.00057   0.00008
  55       15G-4        0.00000  -0.00000  -0.00000   0.00000  -0.00000
  56 2   O  1S          0.60471   0.08438  -0.00105  -0.04363   0.06804
  57        2S          0.76174  -0.00793  -0.00958  -0.20444   0.05352
  58        3S         -0.16062   0.00266   0.09555  -0.23341  -0.03659
  59        4S          1.51713  -0.47748  -0.06610  -1.28532  -0.17345
  60        5S          0.25432  -0.38107  -0.11060  -0.05289  -0.02128
  61        6PX        -0.03388  -0.04561   0.01845  -0.00093   0.02276
  62        6PY         0.04830  -0.17525   0.25091  -0.06863   0.42522
  63        6PZ         0.04325   0.48613   0.19738   0.29584   0.04279
  64        7PX        -0.01801  -0.00719  -0.01843  -0.01068  -0.00769
  65        7PY         0.03100  -0.04026   0.20010   0.13725  -0.30869
  66        7PZ         0.15349  -0.40262  -0.02614  -0.89790  -0.13303
  67        8PX        -0.02646  -0.10352  -0.03504  -0.15386  -0.03135
  68        8PY        -0.15315   0.40659  -0.90630  -0.15716  -0.42391
  69        8PZ         0.43366  -0.13155  -0.02701  -0.09979  -0.04371
  70        9PX         0.06736   0.06976   0.04437   0.05573   0.02381
  71        9PY         0.02464  -0.12277   0.48139   0.18069   0.15571
  72        9PZ         0.44227  -0.72540  -0.27769  -0.17282   0.02090
  73       10D 0        0.52172   0.28576   0.10588  -0.04864  -0.00400
  74       10D+1        0.15723  -0.00562  -0.04124  -0.03376  -0.02671
  75       10D-1        0.05523  -0.18274   0.42819   0.12624  -0.24005
  76       10D+2       -0.00332   0.00988   0.00625  -0.00524  -0.00210
  77       10D-2        0.00000   0.00000  -0.00000  -0.00000  -0.00000
  78       11D 0        0.03439  -0.09131   0.01373  -0.27360  -0.07663
  79       11D+1       -0.03007  -0.00700   0.02191   0.00978   0.01092
  80       11D-1       -0.02384   0.12002  -0.31497  -0.09978  -0.04412
  81       11D+2       -0.00633   0.02227   0.00733   0.02433   0.00576
  82       11D-2       -0.00000  -0.00000   0.00000   0.00000   0.00000
  83       12D 0       -0.25420  -0.45180  -0.19799   0.31923   0.10307
  84       12D+1       -0.07749   0.02689   0.00534   0.01944   0.00527
  85       12D-1       -0.08849   0.23795  -0.38127   0.04208  -0.48036
  86       12D+2       -0.02447   0.02024   0.00584   0.02491   0.00395
  87       12D-2        0.00000   0.00000  -0.00000  -0.00000   0.00000
  88       13F 0        0.16410   0.14802   0.08652  -0.13251   0.01484
  89       13F+1       -0.04311  -0.10385  -0.04028  -0.06544  -0.01327
  90       13F-1        0.02050  -0.04203   0.14859   0.00289   0.32174
  91       13F+2       -0.00172  -0.00065   0.00172  -0.00929  -0.00279
  92       13F-2        0.00000  -0.00000   0.00000   0.00000  -0.00000
  93       13F+3        0.08281   0.06014  -0.03903   0.12365   0.00798
  94       13F-3       -0.00014  -0.00076   0.00117  -0.00169   0.01060
  95       14F 0       -0.05817  -0.26259  -0.14614   0.24895  -0.00100
  96       14F+1        0.01352  -0.04588   0.02640  -0.06265   0.01442
  97       14F-1       -0.09117   0.23786  -0.47533   0.01059  -0.63178
  98       14F+2        0.00548   0.01798   0.01079  -0.00818  -0.00072
  99       14F-2        0.00000   0.00000  -0.00000  -0.00000   0.00000
 100       14F+3        0.13164   0.01722  -0.02721   0.01862  -0.01234
 101       14F-3       -0.00090   0.00241  -0.00359  -0.00432   0.02266
 102       15G 0       -0.13735  -0.05918  -0.04696   0.04208  -0.04345
 103       15G+1       -0.02748   0.03943   0.00511  -0.04208  -0.02667
 104       15G-1       -0.03172   0.08991  -0.19224  -0.02904  -0.06895
 105       15G+2       -0.00290   0.00267   0.00241  -0.00300  -0.00076
 106       15G-2       -0.00000   0.00000  -0.00000  -0.00000   0.00000
 107       15G+3        0.02773   0.01516  -0.00921   0.03824   0.00369
 108       15G-3       -0.00014   0.00105  -0.00343  -0.00221   0.00617
 109       15G+4       -0.00017  -0.00011  -0.00015   0.00045   0.00008
 110       15G-4        0.00000  -0.00000   0.00000  -0.00000   0.00000
                          26        27        28        29        30
     Eigenvalues --     0.00000   0.00000   0.00000   0.00000   0.00000
   1 1   O  1S          0.63653   0.01848   0.20424  -0.02538  -0.10120
   2        2S          0.86370  -0.01327  -0.02205   0.02871  -0.02951
   3        3S          0.27850  -0.08637  -0.59382   0.33781   0.62871
   4        4S          0.92467  -0.08399  -0.20864  -0.21046  -0.36292
   5        5S         -0.54226  -0.10278  -2.04821  -1.70229  -4.00261
   6        6PX        -0.05462   0.03286  -0.01630   0.00777  -0.03240
   7        6PY        -0.06500   0.30824  -0.04600  -0.07781   0.02555
   8        6PZ         0.29367   0.06713   0.38060   0.16488   0.37159
   9        7PX         0.05647  -0.03083   0.03398   0.01089   0.07267
  10        7PY         0.13841  -0.52218   0.13427   0.73165  -0.30549
  11        7PZ        -0.60378  -0.08831  -0.68026  -0.55424  -1.31254
  12        8PX        -0.04885  -0.04248  -0.04282  -0.04834  -0.12273
  13        8PY        -0.23395   0.86056  -0.27423  -1.79725   0.76505
  14        8PZ         0.00168   0.27713   2.65735   1.38019   3.41584
  15        9PX        -0.01459   0.01318  -0.02360  -0.02583  -0.02303
  16        9PY         0.20085   0.85149   0.02136   0.51250  -0.23656
  17        9PZ         0.08952  -0.10453  -0.15564   0.46129   0.96754
  18       10D 0        0.21723   0.01015   0.28560  -0.18877  -0.32707
  19       10D+1       -0.03211   0.03239  -0.02838   0.00840  -0.05142
  20       10D-1       -0.03611  -0.38294   0.04193  -0.03788   0.06000
  21       10D+2       -0.00368   0.00114  -0.00354   0.01461   0.02642
  22       10D-2        0.00000   0.00000   0.00000   0.00000   0.00000
  23       11D 0        0.10187  -0.09822  -0.77796   0.15099   0.23678
  24       11D+1       -0.08756   0.00281  -0.02807  -0.01584  -0.04768
  25       11D-1        0.04498   0.16403  -0.01310  -0.02879   0.01459
  26       11D+2       -0.01031  -0.00457  -0.01222  -0.02811  -0.05317
  27       11D-2       -0.00000  -0.00000   0.00000  -0.00000   0.00000
  28       12D 0        0.09872   0.04047  -0.50594  -0.71639  -1.77526
  29       12D+1        0.05581  -0.00592   0.10666   0.05811   0.16614
  30       12D-1       -0.01557  -1.38402   0.20640   1.22029  -0.56032
  31       12D+2        0.01016  -0.00046   0.04478  -0.00269   0.02089
  32       12D-2        0.00000   0.00000  -0.00000   0.00000  -0.00000
  33       13F 0       -0.29693   0.03224  -0.07809  -0.01369  -0.12878
  34       13F+1        0.13139  -0.02422   0.03617   0.01422   0.03445
  35       13F-1       -0.00461   0.23695   0.00955   0.61068  -0.30456
  36       13F+2       -0.00861   0.00245   0.01630   0.00556   0.01459
  37       13F-2       -0.00000  -0.00000   0.00000   0.00000   0.00000
  38       13F+3       -0.06169  -0.01972  -0.07117  -0.04886  -0.06964
  39       13F-3        0.00065  -0.00458   0.00214   0.02040  -0.01199
  40       14F 0       -0.02643   0.02405   0.77632   0.30450   0.90661
  41       14F+1       -0.00081   0.02788  -0.05287  -0.01928  -0.08260
  42       14F-1       -0.06338   0.24063  -0.07554  -0.65385   0.28752
  43       14F+2       -0.01186   0.00139   0.01826  -0.00915  -0.00876
  44       14F-2       -0.00000   0.00000  -0.00000   0.00000   0.00000
  45       14F+3       -0.08253  -0.02149  -0.02035  -0.02331  -0.02282
  46       14F-3        0.00392   0.02276  -0.00052   0.03321  -0.02450
  47       15G 0        0.03558   0.01815  -0.08925   0.03428  -0.03611
  48       15G+1        0.21130  -0.00947  -0.00093  -0.00649   0.02618
  49       15G-1       -0.02186  -0.17589   0.01046  -0.06783   0.05789
  50       15G+2        0.00029  -0.00072  -0.00420   0.00039   0.00040
  51       15G-2       -0.00000   0.00000   0.00000  -0.00000  -0.00000
  52       15G+3        0.02335   0.00081   0.01939   0.01030   0.01697
  53       15G-3        0.00021   0.00348  -0.00070  -0.00621   0.00282
  54       15G+4        0.00000  -0.00003   0.00029  -0.00113  -0.00225
  55       15G-4       -0.00000  -0.00000  -0.00000   0.00000   0.00000
  56 2   O  1S          0.43636  -0.00156   0.39367  -0.16107  -0.25712
  57        2S          0.38520   0.02717   0.72496  -0.20915  -0.28539
  58        3S         -0.39140   0.11387   0.65649  -0.30851  -0.55964
  59        4S          0.78382  -0.18780   0.46606   0.92804   2.40791
  60        5S         -0.58490   0.24584   1.72227   1.25198   2.67111
  61        6PX         0.07473   0.02027   0.00125  -0.00052  -0.00315
  62        6PY        -0.03081  -0.67028   0.10675   0.29473  -0.08385
  63        6PZ        -0.07994   0.06217  -0.34821   0.31617   0.36380
  64        7PX         0.03420  -0.02057  -0.01441  -0.01661  -0.03228
  65        7PY         0.02736   1.23040  -0.19963  -0.59883   0.19404
  66        7PZ        -0.00109  -0.06357   0.73733  -0.41160  -0.37138
  67        8PX         0.15937  -0.03091   0.10047   0.06536   0.18535
  68        8PY         0.04900  -1.71356   0.31224   1.35732  -0.53808
  69        8PZ        -0.29400   0.18303   1.42383   1.18135   2.56200
  70        9PX        -0.23411   0.07021  -0.02894   0.01396  -0.04577
  71        9PY        -0.09561  -0.24821  -0.04601  -0.16062   0.04449
  72        9PZ        -0.10918   0.04664   0.53181   0.38845   0.88787
  73       10D 0        0.16069  -0.01704   0.10998  -0.17946  -0.35141
  74       10D+1       -0.16634  -0.01452  -0.01277  -0.00859  -0.03376
  75       10D-1        0.02315   0.09746   0.00186   0.25272  -0.15852
  76       10D+2       -0.00399  -0.00015  -0.00764   0.00308   0.00374
  77       10D-2       -0.00000  -0.00000   0.00000  -0.00000   0.00000
  78       11D 0       -0.32556   0.05536   0.34774   0.45328   1.02477
  79       11D+1       -0.00784   0.02024  -0.01666   0.00541  -0.04726
  80       11D-1        0.02943   0.00263   0.00023  -0.21083   0.11324
  81       11D+2        0.01842   0.00242  -0.03164   0.03977   0.06246
  82       11D-2        0.00000   0.00000  -0.00000   0.00000  -0.00000
  83       12D 0       -0.03825   0.11166   0.90967   0.03570   0.19794
  84       12D+1        0.09104   0.00164   0.04778   0.02425   0.11002
  85       12D-1        0.00231  -1.15749   0.17411   0.98840  -0.40002
  86       12D+2        0.02133  -0.00466  -0.08483   0.02310   0.04532
  87       12D-2       -0.00000  -0.00000   0.00000  -0.00000   0.00000
  88       13F 0        0.39326  -0.03337  -0.13698   0.13998   0.39054
  89       13F+1        0.11435  -0.03119   0.03557   0.00901   0.03508
  90       13F-1       -0.05710   0.05462  -0.02016   0.10011  -0.07852
  91       13F+2       -0.00960   0.00070   0.00335   0.00430   0.01118
  92       13F-2        0.00000   0.00000   0.00000   0.00000  -0.00000
  93       13F+3       -0.05543  -0.01977  -0.07015  -0.04838  -0.06779
  94       13F-3       -0.00046  -0.00000   0.00189   0.05519  -0.03200
  95       14F 0       -0.66320   0.12440   0.81322  -0.13368  -0.27973
  96       14F+1        0.06839   0.02820   0.04255   0.03553   0.09082
  97       14F-1        0.05994  -0.98626   0.15765   0.54958  -0.20952
  98       14F+2       -0.00221   0.00371   0.00953   0.00903   0.00570
  99       14F-2       -0.00000  -0.00000  -0.00000   0.00000   0.00000
 100       14F+3       -0.07984  -0.02015  -0.02235  -0.02394  -0.02621
 101       14F-3       -0.00251  -0.00138   0.00042   0.02282  -0.01429
 102       15G 0       -0.46395   0.03185   0.08583   0.06122   0.09584
 103       15G+1       -0.09421   0.00197   0.03982   0.02185   0.05329
 104       15G-1        0.01132   0.03002  -0.00088   0.12961  -0.06476
 105       15G+2       -0.00082   0.00056   0.00026   0.00240   0.00587
 106       15G-2        0.00000  -0.00000  -0.00000   0.00000   0.00000
 107       15G+3       -0.02607  -0.00062  -0.02055  -0.01104  -0.01911
 108       15G-3       -0.00003   0.00227   0.00046   0.01392  -0.00795
 109       15G+4        0.00003   0.00014   0.00164  -0.00056  -0.00085
 110       15G-4        0.00000   0.00000   0.00000  -0.00000  -0.00000
                          31        32        33        34        35
     Eigenvalues --     0.00000   0.00000   0.00000   0.00000   0.00000
   1 1   O  1S          0.09705  -0.26005  -0.14871   0.01990   0.11101
   2        2S          0.11482  -0.27840  -0.28625   0.10708   0.13427
   3        3S          0.03972  -0.04232  -0.56564   1.47081  -0.82144
   4        4S         -0.00624   0.13989   1.05619  -4.25796   2.79996
   5        5S         -0.50891   1.94082  -2.56535  -2.87329   8.76141
   6        6PX        -0.03827   0.14637   0.18649   0.06793   0.04348
   7        6PY         0.18361   0.03973   0.00105   0.00256  -0.01087
   8        6PZ        -0.00190   0.00200   0.13118  -0.12951   0.06255
   9        7PX         0.05287  -0.21269  -0.03113   0.15961   0.16971
  10        7PY        -0.49651  -0.09658   0.00039  -0.00577   0.01861
  11        7PZ         0.01566  -0.10152  -0.37644  -0.04389   0.31844
  12        8PX        -0.02943   0.20358  -0.62282  -0.52805  -0.42559
  13        8PY         1.42544   0.27219   0.03346   0.02700  -0.05006
  14        8PZ         0.09764  -0.30323   0.52235   4.20167  -5.04035
  15        9PX         0.03109  -0.13086  -0.27332  -0.06106   0.37246
  16        9PY         0.84617   0.19666   0.08859   0.02769  -0.01259
  17        9PZ         0.32255  -1.29349   1.01009   0.80409  -3.14805
  18       10D 0       -0.02669  -0.07780   0.22774   0.35992  -0.30381
  19       10D+1       -0.04764   0.21312   0.14366   0.01390   0.05487
  20       10D-1       -0.20442  -0.05633   0.04998   0.01545  -0.01987
  21       10D+2        0.00141  -0.01305   0.09825   0.14312  -0.09891
  22       10D-2        0.00000   0.00000   0.00000   0.00000  -0.00000
  23       11D 0        0.05292   0.04991  -0.13618  -1.18095   0.92892
  24       11D+1       -0.02316   0.09775  -0.04959  -0.07278  -0.08976
  25       11D-1        0.14959   0.01399  -0.02835  -0.01293   0.05531
  26       11D+2       -0.01168   0.04361  -0.14779   0.36819  -0.16784
  27       11D-2       -0.00000  -0.00000  -0.00000  -0.00000   0.00000
  28       12D 0       -0.17488   0.43410  -0.24227  -1.21442   1.86667
  29       12D+1        0.06016  -0.30401   0.76486   0.44195   0.07241
  30       12D-1       -1.68897  -0.30612  -0.13903  -0.05149   0.02897
  31       12D+2       -0.01794   0.10041  -0.23071   0.37154   0.30356
  32       12D-2       -0.00000  -0.00000  -0.00000  -0.00000  -0.00000
  33       13F 0        0.02830  -0.12191   0.02656   0.15509  -0.05659
  34       13F+1        0.01743  -0.04252   0.13513   0.03535   0.06527
  35       13F-1       -0.31885  -0.06716   0.00053   0.00250  -0.01105
  36       13F+2       -0.00051   0.00419   0.03667  -0.00136   0.06622
  37       13F-2       -0.00000   0.00000  -0.00000   0.00000   0.00000
  38       13F+3       -0.03105   0.12070  -0.05750  -0.02708  -0.01300
  39       13F-3        0.15965   0.04118  -0.00542   0.00176   0.01649
  40       14F 0       -0.02492   0.20740  -0.12375   0.41583  -0.45156
  41       14F+1       -0.06266   0.25982   0.03276  -0.16791   0.02838
  42       14F-1        1.25999   0.26370   0.02604   0.02300  -0.03908
  43       14F+2       -0.00704   0.03088  -0.01321  -0.12936   0.32662
  44       14F-2        0.00000   0.00000   0.00000  -0.00000  -0.00000
  45       14F+3       -0.02479   0.11268  -0.02108  -0.01489  -0.02154
  46       14F-3        0.17154   0.05392  -0.02585  -0.01175   0.00814
  47       15G 0        0.07587  -0.31232   0.24031  -0.07242   0.14545
  48       15G+1        0.00972  -0.07414   0.17850   0.11003   0.10682
  49       15G-1       -0.33556  -0.10951  -0.03156  -0.02461   0.08625
  50       15G+2       -0.00005   0.00060  -0.04943  -0.07935   0.18840
  51       15G-2       -0.00000  -0.00000   0.00000  -0.00000  -0.00000
  52       15G+3        0.00590  -0.01738   0.01090   0.00015  -0.00517
  53       15G-3       -0.00451   0.00046  -0.00016   0.00050  -0.01683
  54       15G+4       -0.00023   0.00058  -0.00154  -0.00684   0.02368
  55       15G-4       -0.00000   0.00000  -0.00000   0.00000  -0.00000
  56 2   O  1S          0.03197  -0.12996  -0.02667  -0.51596   0.05939
  57        2S          0.01229  -0.04600  -0.08333  -0.98046   0.13590
  58        3S         -0.09722   0.38670  -0.14794  -2.67934   1.01976
  59        4S          0.11853  -0.20604  -0.16121   4.36124  -1.72754
  60        5S          0.53115  -2.28156   2.23687   3.01828  -9.31634
  61        6PX         0.01612  -0.09322  -0.18391  -0.07167  -0.05419
  62        6PY        -0.08508  -0.02061   0.04112   0.00925  -0.01400
  63        6PZ         0.09803  -0.37225   0.06085   0.20924  -0.14578
  64        7PX        -0.02557   0.12752   0.02448  -0.14949  -0.15406
  65        7PY         0.56488   0.10607  -0.03616  -0.00419   0.01521
  66        7PZ        -0.17830   0.73443  -0.11938  -0.98465   1.01126
  67        8PX         0.07113  -0.29645   0.64197   0.53816   0.43917
  68        8PY        -1.68866  -0.32559  -0.02355  -0.02695   0.03043
  69        8PZ         0.28889  -1.11571   0.28026   4.68098  -5.33174
  70        9PX        -0.07856   0.25249   0.26228   0.04689  -0.39414
  71        9PY        -0.64313  -0.13534  -0.11035  -0.03073   0.01970
  72        9PZ         0.15023  -0.69374   1.06509   1.06214  -3.62110
  73       10D 0       -0.01798   0.02287  -0.10624  -0.33045   0.14635
  74       10D+1       -0.02844   0.15576   0.12778   0.01976   0.06640
  75       10D-1        0.04014   0.03164  -0.01358  -0.00409  -0.00028
  76       10D+2        0.00200  -0.00370  -0.08800  -0.07544   0.19689
  77       10D-2       -0.00000  -0.00000  -0.00000  -0.00000   0.00000
  78       11D 0        0.02539   0.00213   0.09775   0.85385  -0.41316
  79       11D+1       -0.03633   0.15573  -0.00346  -0.07309  -0.10457
  80       11D-1        0.21971   0.03463  -0.00525  -0.00897   0.04078
  81       11D+2        0.01255  -0.03824  -0.01127  -0.07341  -0.15932
  82       11D-2        0.00000   0.00000   0.00000   0.00000  -0.00000
  83       12D 0        0.01279  -0.18770   0.03079   1.95539  -2.87597
  84       12D+1        0.04210  -0.25141   0.73153   0.43005   0.07519
  85       12D-1       -2.23093  -0.47109  -0.07310  -0.03511   0.01862
  86       12D+2       -0.02695   0.13242  -0.06554  -0.20050  -0.20733
  87       12D-2        0.00000   0.00000  -0.00000   0.00000   0.00000
  88       13F 0       -0.12055   0.48172  -0.10677  -0.08056   0.03530
  89       13F+1        0.03250  -0.10120  -0.11289  -0.01576  -0.04515
  90       13F-1        0.09421   0.03661  -0.03679  -0.00783   0.02325
  91       13F+2       -0.00398   0.01440   0.01677   0.05250  -0.34249
  92       13F-2       -0.00000   0.00000  -0.00000   0.00000   0.00000
  93       13F+3       -0.03049   0.11732  -0.03384  -0.01739   0.00466
  94       13F-3        0.01457  -0.00018  -0.04404  -0.02173   0.15241
  95       14F 0        0.08393  -0.38696  -0.08458   0.99453  -0.90250
  96       14F+1        0.04379  -0.24165  -0.04132   0.16744  -0.03298
  97       14F-1       -0.49637  -0.09851  -0.02266  -0.02063   0.04240
  98       14F+2        0.00925  -0.05149   0.00007   0.15265   0.37401
  99       14F-2        0.00000   0.00000   0.00000  -0.00000  -0.00000
 100       14F+3       -0.02806   0.12299  -0.01746  -0.01149  -0.00662
 101       14F-3        0.01729   0.00358   0.01451   0.00518  -0.06731
 102       15G 0        0.05399  -0.16946  -0.11027   0.16988  -0.11834
 103       15G+1        0.02474  -0.10661   0.22633   0.11750   0.09966
 104       15G-1       -0.42196  -0.09051  -0.16450  -0.04862   0.11528
 105       15G+2       -0.00271   0.01080   0.02966   0.03135  -0.15798
 106       15G-2        0.00000   0.00000  -0.00000   0.00000   0.00000
 107       15G+3       -0.00641   0.01950  -0.02539  -0.01345  -0.00719
 108       15G-3        0.02592   0.00777   0.00020   0.00176  -0.01227
 109       15G+4       -0.00004  -0.00022   0.00067  -0.00874   0.00509
 110       15G-4        0.00000  -0.00000   0.00000  -0.00000   0.00000
                          36        37        38        39        40
     Eigenvalues --     0.00000   0.00000   0.00000   0.00000   0.00000
   1 1   O  1S          0.11075  -0.14972  -0.02838   0.08307  -0.02537
   2        2S          0.16126  -0.30924  -0.11200   0.17124  -0.03021
   3        3S          0.47518  -1.08381  -0.74400   0.61236  -0.01194
   4        4S         -0.90752   2.06015   1.81984  -1.41608  -0.15756
   5        5S         -6.01029   1.09955  -2.66998   0.84077   0.65709
   6        6PX         0.02275   0.00932   0.01782   0.04599   0.00884
   7        6PY        -0.01641   0.00778   0.01202   0.02445  -0.00048
   8        6PZ         0.02209  -0.01814   0.00884  -0.03718  -0.05073
   9        7PX        -0.32511  -0.38650   0.07116  -0.02621   0.05672
  10        7PY         0.02165  -0.00767  -0.01938  -0.03614   0.01184
  11        7PZ        -0.27548   0.25836   0.06169   0.05095   0.16342
  12        8PX         0.22442   0.27708   0.28051  -0.11277  -0.06786
  13        8PY        -0.06144   0.03248   0.04309   0.08303  -0.04725
  14        8PZ         2.70721  -2.02306  -0.68944   0.66571  -0.31401
  15        9PX         0.20342  -0.33990  -0.24032  -0.38065  -0.26553
  16        9PY        -0.00179   0.02259  -0.01344  -0.00416   0.04993
  17        9PZ         2.44697  -0.41670   1.21856  -0.36399  -0.26228
  18       10D 0       -0.05430  -0.11792  -0.13285   0.03715   0.01363
  19       10D+1        0.09230   0.03545  -0.06311   0.09299   0.35333
  20       10D-1       -0.02101   0.00919   0.00834   0.02086   0.01799
  21       10D+2       -0.34570   0.33302  -0.02941  -0.42334  -0.06232
  22       10D-2        0.00000  -0.00000  -0.00000  -0.00000   0.00000
  23       11D 0       -0.06399   0.38740   0.39651  -0.22335  -0.05472
  24       11D+1       -0.08072  -0.06398   0.04200  -0.22582  -0.53943
  25       11D-1        0.09311  -0.03821  -0.06007  -0.10413   0.05419
  26       11D+2        0.45123  -0.44197  -0.08046   0.30481  -0.22255
  27       11D-2       -0.00000   0.00000  -0.00000  -0.00000  -0.00000
  28       12D 0       -1.54428   0.87153  -0.02421  -0.14560   0.26465
  29       12D+1        0.14297   0.51728  -0.39077   0.50314   0.38052
  30       12D-1        0.01315  -0.03569   0.01144  -0.00622  -0.03491
  31       12D+2        0.06203   0.38559   0.38439  -0.05490   0.31332
  32       12D-2        0.00000   0.00000   0.00000   0.00000  -0.00000
  33       13F 0       -0.03053   0.02178  -0.00942   0.00249   0.01418
  34       13F+1       -0.02050  -0.10792   0.05426  -0.03404  -0.03559
  35       13F-1       -0.02957   0.02190   0.01693   0.03990  -0.00018
  36       13F+2       -0.23018   0.35180   0.03533  -0.47573  -0.07182
  37       13F-2        0.00000  -0.00000   0.00000   0.00000  -0.00000
  38       13F+3        0.01122   0.00621  -0.00300  -0.01835  -0.01074
  39       13F-3        0.04434  -0.02996  -0.05885  -0.09795  -0.02361
  40       14F 0        0.37677  -0.42368  -0.21200   0.15720  -0.07708
  41       14F+1        0.16787  -0.01388   0.12280  -0.04271   0.05434
  42       14F-1       -0.05450   0.02880   0.03268   0.06633  -0.03680
  43       14F+2        0.17595  -0.20196   0.31806  -0.06276  -0.27223
  44       14F-2       -0.00000  -0.00000  -0.00000   0.00000   0.00000
  45       14F+3        0.04461   0.05457  -0.06046  -0.02988  -0.08571
  46       14F-3        0.03305  -0.04358  -0.00182  -0.02017   0.16158
[...]
 103       15G+1        0.04649  -0.31370   0.00306  -0.04111  -0.24647
 104       15G-1        0.04511   0.00714  -0.04118  -0.01498   0.05512
 105       15G+2       -0.00015   0.00172   0.00009  -0.00402  -0.00023
 106       15G-2        0.00000  -0.00000   0.00000  -0.00000   0.00000
 107       15G+3       -0.00307   0.02258   0.00051  -0.07470  -0.08126
 108       15G-3        0.00097   0.00022  -0.00147   0.00001  -0.00010
 109       15G+4       -0.00002   0.00017  -0.00000  -0.00008  -0.00000
 110       15G-4        0.00000  -0.00000   0.00000  -0.00000   0.00000
                         101       102       103       104       105
     Eigenvalues --    -0.00000  -0.00000  -0.00000  -0.00000  -0.00000
   1 1   O  1S          0.05139   0.38831   0.05446   0.10476  -0.03391
   2        2S          0.05233   0.15129   0.02964   0.10060  -0.07650
   3        3S         -0.02382  -0.55458  -0.07068  -0.10684  -0.09688
   4        4S          0.07654  -0.11981   0.02957   0.38185  -0.10564
   5        5S          0.06450   0.62256   0.06745  -0.43430   0.27486
   6        6PX         0.03920  -0.08362  -0.16902   0.01288   0.00880
   7        6PY         0.05410  -0.00143   0.03191   0.00251   0.01218
   8        6PZ        -0.01275   0.28518   0.02532  -0.10827   0.01396
   9        7PX         0.09865  -0.00634   0.12375  -0.00833  -0.13464
  10        7PY         0.00551   0.02739  -0.16197  -0.00623  -0.02243
  11        7PZ        -0.02156  -0.00471  -0.03942  -0.16678  -0.14068
  12        8PX         0.40264  -0.16414   0.20586  -0.07300   0.03877
  13        8PY         0.16009  -0.04339   0.38235  -0.00574  -0.01349
  14        8PZ        -0.02047  -0.22586  -0.00753   0.11432   0.01096
  15        9PX        -0.31119   0.11459  -0.23219   0.08871   0.07007
  16        9PY        -0.26936  -0.00862  -0.16261   0.01003   0.02996
  17        9PZ        -0.05759   0.17880  -0.00277   0.30867  -0.09400
  18       10D 0       -0.00440   0.05665  -0.00335  -0.15488  -0.06235
  19       10D+1        0.14918   0.00122  -0.03295   0.00317   0.11243
  20       10D-1        0.09631   0.00331   0.30217  -0.03556  -0.04878
  21       10D+2        0.00046  -0.00002   0.00013   0.00068  -0.00043
  22       10D-2        0.00000   0.00000  -0.00000  -0.00000  -0.00000
  23       11D 0       -0.03878   0.19125   0.00325  -0.17279   0.05038
  24       11D+1        0.03947   0.04249   0.02599   0.02047  -0.06150
  25       11D-1        0.04017  -0.02469   0.15351   0.00468   0.05223
  26       11D+2        0.00046  -0.00611  -0.00018  -0.00077  -0.00012
  27       11D-2       -0.00000  -0.00000   0.00000   0.00000   0.00000
  28       12D 0       -0.00964   0.10364   0.01354  -0.30911   0.20868
  29       12D+1       -0.05557  -0.06229  -0.04501  -0.12583   0.21165
  30       12D-1       -0.31180  -0.00804   0.38911  -0.03499  -0.05344
  31       12D+2       -0.00082   0.00341   0.00060   0.00254   0.00011
  32       12D-2       -0.00000   0.00000   0.00000  -0.00000   0.00000
  33       13F 0        0.07831   0.23386   0.03540   0.10218  -0.17752
  34       13F+1        0.25558  -0.06179   0.20822   0.14663   0.27165
  35       13F-1        0.20905   0.01494   0.03240  -0.00286  -0.02664
  36       13F+2       -0.00042   0.00102  -0.00030  -0.00185   0.00098
  37       13F-2       -0.00000   0.00000   0.00000  -0.00000   0.00000
  38       13F+3       -0.07596   0.01301   0.02366   0.33386   0.22017
  39       13F-3        0.00034   0.00006   0.00083  -0.00018   0.00019
  40       14F 0       -0.03515  -0.05660   0.02144   0.41224   0.26637
  41       14F+1       -0.13299   0.04294  -0.21303  -0.16103   0.18200
  42       14F-1        0.22104   0.01264  -0.24693   0.01300   0.03223
  43       14F+2        0.00025  -0.00165  -0.00025  -0.00330   0.00242
  44       14F-2        0.00000  -0.00000  -0.00000   0.00000  -0.00000
  45       14F+3        0.10724   0.00328   0.05646  -0.46573   0.08187
  46       14F-3       -0.00149  -0.00063   0.00594  -0.00019  -0.00011
  47       15G 0       -0.02056  -0.06818  -0.01048  -0.05033   0.04500
  48       15G+1        0.02138   0.02252  -0.05515  -0.01752  -0.00238
  49       15G-1       -0.05649   0.00129   0.03959  -0.00448  -0.00738
  50       15G+2        0.00021   0.00012   0.00015  -0.00039  -0.00041
  51       15G-2       -0.00000   0.00000   0.00000  -0.00000   0.00000
  52       15G+3        0.04130  -0.00599  -0.00730  -0.06998  -0.15944
  53       15G-3       -0.00102  -0.00006  -0.00052   0.00006   0.00003
  54       15G+4       -0.00000   0.00004  -0.00000  -0.00001  -0.00002
  55       15G-4       -0.00000   0.00000  -0.00000  -0.00000   0.00000
  56 2   O  1S         -0.07102  -0.13964  -0.03131  -0.05309   0.09733
  57        2S         -0.05443  -0.09076  -0.03171  -0.01775  -0.06940
  58        3S          0.07627   0.11662   0.01628   0.01801  -0.32226
  59        4S         -0.07047  -0.09061  -0.02767   0.61528  -0.23833
  60        5S         -0.09283  -0.19761  -0.03006  -0.11933   0.30098
  61        6PX        -0.15986  -0.00973  -0.17974  -0.01649   0.03495
  62        6PY        -0.41353  -0.02220  -0.15334   0.02770   0.04070
  63        6PZ         0.00180  -0.06673  -0.05167  -0.16585  -0.02184
  64        7PX        -0.01162   0.03190   0.12059  -0.01643  -0.12051
  65        7PY        -0.22674  -0.04754   0.50510  -0.04518  -0.04725
  66        7PZ        -0.01011  -0.12711  -0.01901   0.02422  -0.04892
  67        8PX         0.16248  -0.07613   0.19729  -0.10206   0.07505
  68        8PY         0.09106   0.03787  -0.17128   0.02310   0.00234
  69        8PZ        -0.04118   0.02093   0.01554   0.22315  -0.02666
  70        9PX        -0.28857   0.11332  -0.21006   0.10035   0.06652
  71        9PY         0.32306   0.02655   0.07784  -0.02725  -0.01900
  72        9PZ         0.00112   0.34110   0.02762  -0.00089  -0.04950
  73       10D 0        0.02353   0.00206   0.01723   0.02691  -0.09519
  74       10D+1        0.00055  -0.05978   0.04640   0.03355  -0.13382
  75       10D-1        0.20691   0.00004  -0.07285   0.01238   0.02873
  76       10D+2        0.00129   0.00249   0.00065  -0.00006   0.00186
  77       10D-2       -0.00000  -0.00000   0.00000   0.00000   0.00000
  78       11D 0       -0.03572  -0.05386   0.00090   0.00498   0.03411
  79       11D+1        0.06131  -0.08737  -0.01996  -0.00291   0.04635
  80       11D-1       -0.01944   0.03848   0.06258  -0.02312  -0.06992
  81       11D+2        0.00049   0.00429   0.00009   0.00065  -0.00187
  82       11D-2        0.00000   0.00000   0.00000  -0.00000  -0.00000
  83       12D 0       -0.05747  -0.18357  -0.04631  -0.04195  -0.13034
  84       12D+1        0.00098   0.09771   0.05140   0.11115  -0.19370
  85       12D-1       -0.16889  -0.00318  -0.19237   0.01727   0.03932
  86       12D+2        0.00137   0.00604   0.00066   0.00056   0.00003
  87       12D-2       -0.00000  -0.00000  -0.00000   0.00000   0.00000
  88       13F 0       -0.00614   0.33681   0.02446  -0.14976  -0.12714
  89       13F+1        0.28602  -0.07224   0.21000   0.15138   0.26779
  90       13F-1        0.00649  -0.00374   0.05989  -0.00513  -0.02545
  91       13F+2        0.00014  -0.00166   0.00025   0.00323  -0.00172
  92       13F-2       -0.00000   0.00000   0.00000  -0.00000   0.00000
  93       13F+3       -0.07881   0.01406   0.02331   0.33301   0.22069
  94       13F-3        0.00185   0.00019   0.00249  -0.00035  -0.00012
  95       14F 0       -0.03271  -0.11355  -0.03317  -0.11440   0.13871
  96       14F+1       -0.21104   0.08102  -0.20892  -0.17790   0.19420
  97       14F-1       -0.12134   0.02251  -0.23101   0.01589   0.02658
  98       14F+2        0.00095   0.00030   0.00097   0.00376  -0.00092
  99       14F-2        0.00000  -0.00000  -0.00000   0.00000  -0.00000
 100       14F+3        0.10637   0.00341   0.05632  -0.46629   0.08221
 101       14F-3        0.00783   0.00029   0.00235  -0.00031  -0.00037
 102       15G 0       -0.00649   0.03092  -0.01377  -0.14856  -0.08412
 103       15G+1       -0.07779  -0.00043   0.04831   0.00188   0.01230
 104       15G-1       -0.06812   0.00302  -0.10905   0.00990   0.01233
 105       15G+2        0.00024  -0.00065  -0.00001   0.00261  -0.00017
 106       15G-2        0.00000  -0.00000  -0.00000   0.00000  -0.00000
 107       15G+3       -0.03995   0.00536   0.00742   0.07025   0.15917
 108       15G-3       -0.00004  -0.00001   0.00013  -0.00002   0.00003
 109       15G+4        0.00001  -0.00009   0.00000   0.00005  -0.00001
 110       15G-4        0.00000  -0.00000   0.00000   0.00000  -0.00000
                         106       107       108       109       110
     Eigenvalues --    -0.00000  -0.00000  -0.00000  -0.00000  -0.00000
   1 1   O  1S          0.04957   0.00002  -0.00080  -0.05973  -0.08687
   2        2S          0.09065  -0.02749  -0.00439  -0.00185  -0.13071
   3        3S          0.05067  -0.04755  -0.00589   0.14450  -0.01557
   4        4S          0.29922  -0.10504  -0.01850   0.02846  -0.42237
   5        5S         -0.08122   0.07197   0.01390  -0.05477   0.13865
   6        6PX        -0.14041  -0.13175   0.25479   0.48913  -0.12239
   7        6PY         0.04255   0.17183   0.00193   0.00337   0.00021
   8        6PZ         0.07552  -0.00229   0.00162   0.00488  -0.10994
   9        7PX        -0.00388   0.10557  -0.40717  -0.01058   0.06473
  10        7PY        -0.10360  -0.40034  -0.00408  -0.01136  -0.00161
  11        7PZ         0.02531  -0.00558  -0.00046   0.01721  -0.01212
  12        8PX        -0.23052   0.13726   0.14116  -0.33941   0.23942
  13        8PY         0.05483   0.14797  -0.00004   0.00449   0.00418
  14        8PZ        -0.09982   0.02088   0.00350  -0.02021   0.07404
  15        9PX         0.21911  -0.18213  -0.15228  -0.04472  -0.23517
  16        9PY        -0.00150   0.06358   0.00238   0.00571  -0.00367
  17        9PZ        -0.01998  -0.01379  -0.01172  -0.09563   0.10869
  18       10D 0       -0.02010   0.01699   0.00356   0.11679   0.03329
  19       10D+1       -0.17991  -0.02361  -0.60713   0.07483   0.13585
  20       10D-1       -0.13655  -0.63571  -0.00908  -0.01429   0.00344
  21       10D+2        0.00058   0.00001  -0.00000  -0.00061  -0.00031
  22       10D-2       -0.00000  -0.00000  -0.00000   0.00000  -0.00000
  23       11D 0        0.03873   0.00296  -0.00377   0.04950   0.02625
  24       11D+1        0.17840  -0.04588   0.82333   0.06962  -0.05586
  25       11D-1        0.24869   1.00350   0.01123   0.02603   0.00203
  26       11D+2        0.00141  -0.00048  -0.00002   0.00035  -0.00199
  27       11D-2        0.00000   0.00000   0.00000  -0.00000   0.00000
  28       12D 0        0.09808  -0.00882  -0.00564   0.06904   0.07304
  29       12D+1       -0.11704  -0.00754  -0.65601  -0.14268   0.07964
  30       12D-1       -0.15821  -0.70354  -0.00939  -0.01806   0.00214
  31       12D+2       -0.00029   0.00021   0.00002   0.00083   0.00039
  32       12D-2        0.00000  -0.00000  -0.00000   0.00000  -0.00000
  33       13F 0        0.15974  -0.01741  -0.01574   0.02527   0.01978
  34       13F+1        0.12002   0.05301  -0.15305   0.05308  -0.29280
  35       13F-1       -0.05182  -0.22547  -0.00293  -0.00784   0.00040
  36       13F+2       -0.00061   0.00005  -0.00002  -0.00035   0.00178
  37       13F-2        0.00000  -0.00000  -0.00000   0.00000  -0.00000
  38       13F+3       -0.13879   0.03195  -0.00586   0.12254   0.35242
  39       13F-3       -0.00013  -0.00005   0.00001   0.00010  -0.00003
  40       14F 0        0.10347  -0.04934  -0.01715   0.08541   0.06164
  41       14F+1       -0.02089  -0.16012   0.47375  -0.12590   0.28590
  42       14F-1        0.08302   0.34886   0.00423   0.01069   0.00011
  43       14F+2       -0.00176   0.00077   0.00009  -0.00022   0.00262
  44       14F-2       -0.00000   0.00000   0.00000  -0.00000   0.00000
  45       14F+3        0.25544   0.00572  -0.01428   0.02997  -0.24393
  46       14F-3        0.00038   0.00182   0.00003   0.00008  -0.00002
  47       15G 0       -0.07801   0.01727   0.00615  -0.00170   0.01504
  48       15G+1        0.04498  -0.03567  -0.19146  -0.18290  -0.03120
  49       15G-1       -0.03452  -0.14476  -0.00174  -0.00358  -0.00006
  50       15G+2        0.00086  -0.00019  -0.00002   0.00009  -0.00094
  51       15G-2        0.00000   0.00000   0.00000   0.00000  -0.00000
  52       15G+3        0.41988  -0.08990  -0.05494   0.10776   0.39080
  53       15G-3        0.00002   0.00017   0.00000  -0.00000  -0.00001
  54       15G+4       -0.00000  -0.00000   0.00000   0.00001  -0.00001
  55       15G-4        0.00000   0.00000  -0.00000   0.00000  -0.00000
  56 2   O  1S          0.01662  -0.01311  -0.00513  -0.01723   0.05645
  57        2S          0.01122  -0.01704  -0.00503  -0.01208   0.04281
  58        3S         -0.04131   0.00676   0.00490   0.04512  -0.00664
  59        4S          0.09750  -0.07295  -0.01880  -0.05934  -0.13558
  60        5S         -0.17199   0.05977   0.00666  -0.07419   0.27295
  61        6PX        -0.07016  -0.11599   0.18672   0.59376  -0.16882
  62        6PY         0.05622   0.33072   0.00613   0.00800  -0.00498
  63        6PZ         0.03299  -0.03008  -0.00635  -0.02695   0.02193
  64        7PX         0.03403   0.11383  -0.44295   0.03891   0.03853
  65        7PY        -0.07943  -0.42064  -0.00703  -0.00884   0.00479
  66        7PZ         0.08000  -0.02370  -0.00804  -0.06195  -0.02134
  67        8PX        -0.14617   0.15960   0.05837  -0.21065   0.19176
  68        8PY        -0.00575   0.03742   0.00180  -0.00418  -0.00355
  69        8PZ         0.00795  -0.00394  -0.00195   0.01766  -0.05464
  70        9PX         0.22304  -0.17733  -0.14389  -0.04418  -0.23495
  71        9PY        -0.02109  -0.19192  -0.00464  -0.00207   0.00560
  72        9PZ        -0.20140   0.06995   0.01659   0.02326   0.16966
  73       10D 0       -0.00014   0.01408   0.00462   0.07992  -0.02395
  74       10D+1        0.13018   0.00991   0.66292  -0.15955  -0.10530
  75       10D-1        0.13474   0.56099   0.00666   0.01263   0.00027
  76       10D+2        0.00072  -0.00002   0.00002  -0.00031  -0.00100
  77       10D-2        0.00000   0.00000   0.00000  -0.00000   0.00000
  78       11D 0       -0.07830   0.04744   0.00359  -0.07843   0.11705
  79       11D+1       -0.21341   0.03517  -0.78861  -0.12391   0.07764
  80       11D-1       -0.27672  -1.13325  -0.01308  -0.03026  -0.00138
  81       11D+2        0.00120  -0.00050  -0.00008   0.00010  -0.00114
  82       11D-2        0.00000  -0.00000  -0.00000   0.00000  -0.00000
  83       12D 0       -0.10527   0.04039   0.00179  -0.15909   0.20472
  84       12D+1        0.14989   0.02158   0.63013   0.19635  -0.09438
  85       12D-1        0.12787   0.55868   0.00721   0.01152  -0.00108
  86       12D+2        0.00298  -0.00106  -0.00016   0.00076  -0.00349
  87       12D-2       -0.00000   0.00000   0.00000  -0.00000   0.00000
  88       13F 0       -0.27263   0.06795   0.02569  -0.04668   0.02956
  89       13F+1        0.10911   0.05117  -0.14054   0.03531  -0.28579
  90       13F-1       -0.05324  -0.23664  -0.00316  -0.00721   0.00063
  91       13F+2        0.00110  -0.00027  -0.00004   0.00036  -0.00191
  92       13F-2        0.00000  -0.00000  -0.00000   0.00000  -0.00000
  93       13F+3       -0.13790   0.03221  -0.00705   0.12409   0.35195
  94       13F-3       -0.00018  -0.00116  -0.00002   0.00003   0.00003
  95       14F 0       -0.20658   0.02855   0.01045   0.08412   0.16111
  96       14F+1        0.01201  -0.14878   0.44940  -0.07418   0.26927
  97       14F-1        0.05591   0.28127   0.00443   0.00662  -0.00247
  98       14F+2        0.00242  -0.00079  -0.00006   0.00077  -0.00387
  99       14F-2       -0.00000   0.00000   0.00000  -0.00000   0.00000
 100       14F+3        0.25575   0.00575  -0.01490   0.03049  -0.24404
 101       14F-3        0.00036  -0.00020  -0.00004   0.00001   0.00009
 102       15G 0       -0.06693   0.02160   0.00482  -0.03672   0.05356
 103       15G+1       -0.02604   0.04145   0.16737   0.21822   0.02031
 104       15G-1        0.02599   0.13166   0.00209   0.00228  -0.00123
 105       15G+2        0.00004  -0.00023  -0.00005  -0.00030  -0.00008
 106       15G-2       -0.00000   0.00000  -0.00000  -0.00000   0.00000
 107       15G+3       -0.42034   0.08975   0.05546  -0.10851  -0.39054
 108       15G-3        0.00000   0.00006   0.00000   0.00002  -0.00000
 109       15G+4        0.00000   0.00000   0.00000   0.00001  -0.00003
 110       15G-4       -0.00000   0.00000   0.00000  -0.00000   0.00000
          Condensed to atoms (all electrons):
               1          2
     1  O    7.796206   0.203794
     2  O    0.203794   7.796206
 Mulliken charges:
               1
     1  O   -0.000000
     2  O   -0.000000
 Sum of Mulliken charges =  -0.00000
 Mulliken charges with hydrogens summed into heavy atoms:
               1
     1  O   -0.000000
     2  O   -0.000000
 Electronic spatial extent (au):  <R**2>=             43.9328
 Charge=             -0.0000 electrons
 Dipole moment (field-independent basis, Debye):
    X=             -0.0000    Y=              0.0000    Z=              0.0000  Tot=              0.0000
 Quadrupole moment (field-independent basis, Debye-Ang):
   XX=             -9.2708   YY=            -10.8258   ZZ=            -10.3982
   XY=              0.0000   XZ=              0.0000   YZ=              0.0000
 Traceless Quadrupole moment (field-independent basis, Debye-Ang):
   XX=              0.8942   YY=             -0.6609   ZZ=             -0.2333
   XY=              0.0000   XZ=              0.0000   YZ=              0.0000
 Octapole moment (field-independent basis, Debye-Ang**2):
  XXX=             -0.0000  YYY=              0.0000  ZZZ=             -0.0000  XYY=             -0.0000
  XXY=             -0.0000  XXZ=              0.0000  XZZ=             -0.0000  YZZ=             -0.0000
  YYZ=              0.0000  XYZ=              0.0000
 Hexadecapole moment (field-independent basis, Debye-Ang**3):
 XXXX=             -6.4651 YYYY=             -7.7993 ZZZZ=            -28.7407 XXXY=              0.0000
 XXXZ=              0.0000 YYYX=              0.0000 YYYZ=              0.0000 ZZZX=              0.0000
 ZZZY=              0.0000 XXYY=             -2.3790 XXZZ=             -5.5499 YYZZ=             -6.9418
 XXYZ=              0.0000 YYXZ=              0.0000 ZZXY=             -0.0000
 N-N= 2.776011598269D+01 E-N=-4.103280854941D+02  KE= 1.493262643329D+02
 Symmetry AG   KE= 6.946443181011D+01
 Symmetry B1G  KE= 1.058981842223D-33
 Symmetry B2G  KE= 6.755829405007D-22
 Symmetry B3G  KE= 5.931791597662D+00
 Symmetry AU   KE= 1.073188718427D-32
 Symmetry B1U  KE= 6.510571253278D+01
 Symmetry B2U  KE= 4.690114393266D+00
 Symmetry B3U  KE= 4.134213999096D+00
 No NMR shielding tensors so no spin-rotation constants.
 Leave Link  601 at Fri Mar 17 11:13:53 2023, MaxMem= 10737418240 cpu:               2.7 elap:               0.2
 (Enter /public/apps/gaussian/G16_x86_64_AVX2-enabled_CPUs/g16/l9999.exe)
 Unable to Open any file for archive entry.
 1\1\GINC-CPU-727\SP\RHF\CC-pVQZ\O2\BHAMMOND\17-Mar-2023\0\\#P RHF cc-p
 VQZ punch=(NaturalOrbitals) pop=NO scf=tight\\Gaussian Test o2 SINGLET
  DELTA Dunning cc-pVQZ DIOXYGEN\\0,1\O\O,1,1.22\\Version=ES64L-G16RevC
 .02\HF=-149.5985726\RMSD=1.351e-09\Dipole=0.,0.,0.\Quadrupole=0.664794
 5,-0.4913628,-0.1734317,0.,0.,0.\PG=D*H [C*(O1.O1)]\\@
 The archive entry for this job was punched.


 FAULTILY FAULTLESS, ICILY REGULAR, SPLENDIDLY NULL...
           MAUDE BY TENNYSON
 Job cpu time:       0 days  0 hours  0 minutes 14.1 seconds.
 Elapsed time:       0 days  0 hours  0 minutes  1.9 seconds.
 File lengths (MBytes):  RWF=     10 Int=      0 D2E=      0 Chk=      3 Scr=      1
 Normal termination of Gaussian 16 at Fri Mar 17 11:13:53 2023.
